<VTKFile type="UnstructuredGrid" version="0.1" byte_order="LittleEndian">
   <UnstructuredGrid>
      <Piece  NumberOfPoints="669"  NumberOfCells="592">
         <Points>
            <DataArray type="Float32" NumberOfComponents="3" format="ascii">
-3.125000e-01 -8.593750e-01 0.000000e+00
-3.125000e-01 -9.375000e-01 0.000000e+00
-2.343750e-01 -9.375000e-01 0.000000e+00
-2.343750e-01 -8.593750e-01 0.000000e+00
-1.562500e-01 -9.375000e-01 0.000000e+00
-1.562500e-01 -8.593750e-01 0.000000e+00
-7.812500e-02 -9.375000e-01 0.000000e+00
-7.812500e-02 -8.593750e-01 0.000000e+00
0.000000e+00 -9.375000e-01 0.000000e+00
0.000000e+00 -8.593750e-01 0.000000e+00
7.812500e-02 -9.375000e-01 0.000000e+00
7.812500e-02 -8.593750e-01 0.000000e+00
1.562500e-01 -9.375000e-01 0.000000e+00
1.562500e-01 -8.593750e-01 0.000000e+00
2.343750e-01 -9.375000e-01 0.000000e+00
2.343750e-01 -8.593750e-01 0.000000e+00
3.125000e-01 -9.375000e-01 0.000000e+00
3.125000e-01 -8.593750e-01 0.000000e+00
-4.687500e-01 -7.812500e-01 0.000000e+00
-4.687500e-01 -8.593750e-01 0.000000e+00
-3.906250e-01 -8.593750e-01 0.000000e+00
-3.906250e-01 -7.812500e-01 0.000000e+00
-3.125000e-01 -7.812500e-01 0.000000e+00
-2.343750e-01 -7.812500e-01 0.000000e+00
-1.562500e-01 -7.812500e-01 0.000000e+00
-7.812500e-02 -7.812500e-01 0.000000e+00
0.000000e+00 -7.812500e-01 0.000000e+00
7.812500e-02 -7.812500e-01 0.000000e+00
1.562500e-01 -7.812500e-01 0.000000e+00
2.343750e-01 -7.812500e-01 0.000000e+00
3.125000e-01 -7.812500e-01 0.000000e+00
3.906250e-01 -8.593750e-01 0.000000e+00
3.906250e-01 -7.812500e-01 0.000000e+00
4.687500e-01 -8.593750e-01 0.000000e+00
4.687500e-01 -7.812500e-01 0.000000e+00
-5.468750e-01 -7.031250e-01 0.000000e+00
-5.468750e-01 -7.812500e-01 0.000000e+00
-4.687500e-01 -7.031250e-01 0.000000e+00
-3.906250e-01 -7.031250e-01 0.000000e+00
-3.125000e-01 -7.031250e-01 0.000000e+00
-2.343750e-01 -7.031250e-01 0.000000e+00
-1.562500e-01 -7.031250e-01 0.000000e+00
-7.812500e-02 -7.031250e-01 0.000000e+00
0.000000e+00 -7.031250e-01 0.000000e+00
7.812500e-02 -7.031250e-01 0.000000e+00
1.562500e-01 -7.031250e-01 0.000000e+00
2.343750e-01 -7.031250e-01 0.000000e+00
3.125000e-01 -7.031250e-01 0.000000e+00
3.906250e-01 -7.031250e-01 0.000000e+00
4.687500e-01 -7.031250e-01 0.000000e+00
5.468750e-01 -7.812500e-01 0.000000e+00
5.468750e-01 -7.031250e-01 0.000000e+00
-7.031250e-01 -6.250000e-01 0.000000e+00
-7.031250e-01 -7.031250e-01 0.000000e+00
-6.250000e-01 -7.031250e-01 0.000000e+00
-6.250000e-01 -6.250000e-01 0.000000e+00
-5.468750e-01 -6.250000e-01 0.000000e+00
-4.687500e-01 -6.250000e-01 0.000000e+00
-3.906250e-01 -6.250000e-01 0.000000e+00
-3.125000e-01 -6.250000e-01 0.000000e+00
-2.343750e-01 -6.250000e-01 0.000000e+00
-1.562500e-01 -6.250000e-01 0.000000e+00
-7.812500e-02 -6.250000e-01 0.000000e+00
0.000000e+00 -6.250000e-01 0.000000e+00
7.812500e-02 -6.250000e-01 0.000000e+00
1.562500e-01 -6.250000e-01 0.000000e+00
2.343750e-01 -6.250000e-01 0.000000e+00
3.125000e-01 -6.250000e-01 0.000000e+00
3.906250e-01 -6.250000e-01 0.000000e+00
4.687500e-01 -6.250000e-01 0.000000e+00
5.468750e-01 -6.250000e-01 0.000000e+00
6.250000e-01 -7.031250e-01 0.000000e+00
6.250000e-01 -6.250000e-01 0.000000e+00
7.031250e-01 -7.031250e-01 0.000000e+00
7.031250e-01 -6.250000e-01 0.000000e+00
-7.031250e-01 -5.468750e-01 0.000000e+00
-6.250000e-01 -5.468750e-01 0.000000e+00
-5.468750e-01 -5.468750e-01 0.000000e+00
-4.687500e-01 -5.468750e-01 0.000000e+00
-3.906250e-01 -5.468750e-01 0.000000e+00
-3.125000e-01 -5.468750e-01 0.000000e+00
-2.343750e-01 -5.468750e-01 0.000000e+00
-1.562500e-01 -5.468750e-01 0.000000e+00
-7.812500e-02 -5.468750e-01 0.000000e+00
0.000000e+00 -5.468750e-01 0.000000e+00
7.812500e-02 -5.468750e-01 0.000000e+00
1.562500e-01 -5.468750e-01 0.000000e+00
2.343750e-01 -5.468750e-01 0.000000e+00
3.125000e-01 -5.468750e-01 0.000000e+00
3.906250e-01 -5.468750e-01 0.000000e+00
4.687500e-01 -5.468750e-01 0.000000e+00
5.468750e-01 -5.468750e-01 0.000000e+00
6.250000e-01 -5.468750e-01 0.000000e+00
7.031250e-01 -5.468750e-01 0.000000e+00
-7.812500e-01 -4.687500e-01 0.000000e+00
-7.812500e-01 -5.468750e-01 0.000000e+00
-7.031250e-01 -4.687500e-01 0.000000e+00
-6.250000e-01 -4.687500e-01 0.000000e+00
-5.468750e-01 -4.687500e-01 0.000000e+00
-4.687500e-01 -4.687500e-01 0.000000e+00
-3.906250e-01 -4.687500e-01 0.000000e+00
-3.125000e-01 -4.687500e-01 0.000000e+00
-2.343750e-01 -4.687500e-01 0.000000e+00
-1.562500e-01 -4.687500e-01 0.000000e+00
-7.812500e-02 -4.687500e-01 0.000000e+00
0.000000e+00 -4.687500e-01 0.000000e+00
7.812500e-02 -4.687500e-01 0.000000e+00
1.562500e-01 -4.687500e-01 0.000000e+00
2.343750e-01 -4.687500e-01 0.000000e+00
3.125000e-01 -4.687500e-01 0.000000e+00
3.906250e-01 -4.687500e-01 0.000000e+00
4.687500e-01 -4.687500e-01 0.000000e+00
5.468750e-01 -4.687500e-01 0.000000e+00
6.250000e-01 -4.687500e-01 0.000000e+00
7.031250e-01 -4.687500e-01 0.000000e+00
7.812500e-01 -5.468750e-01 0.000000e+00
7.812500e-01 -4.687500e-01 0.000000e+00
-8.593750e-01 -3.906250e-01 0.000000e+00
-8.593750e-01 -4.687500e-01 0.000000e+00
-7.812500e-01 -3.906250e-01 0.000000e+00
-7.031250e-01 -3.906250e-01 0.000000e+00
-6.250000e-01 -3.906250e-01 0.000000e+00
-5.468750e-01 -3.906250e-01 0.000000e+00
-4.687500e-01 -3.906250e-01 0.000000e+00
-3.906250e-01 -3.906250e-01 0.000000e+00
-3.125000e-01 -3.906250e-01 0.000000e+00
-2.343750e-01 -3.906250e-01 0.000000e+00
-1.562500e-01 -3.906250e-01 0.000000e+00
-7.812500e-02 -3.906250e-01 0.000000e+00
0.000000e+00 -3.906250e-01 0.000000e+00
7.812500e-02 -3.906250e-01 0.000000e+00
1.562500e-01 -3.906250e-01 0.000000e+00
2.343750e-01 -3.906250e-01 0.000000e+00
3.125000e-01 -3.906250e-01 0.000000e+00
3.906250e-01 -3.906250e-01 0.000000e+00
4.687500e-01 -3.906250e-01 0.000000e+00
5.468750e-01 -3.906250e-01 0.000000e+00
6.250000e-01 -3.906250e-01 0.000000e+00
7.031250e-01 -3.906250e-01 0.000000e+00
7.812500e-01 -3.906250e-01 0.000000e+00
8.593750e-01 -4.687500e-01 0.000000e+00
8.593750e-01 -3.906250e-01 0.000000e+00
-8.593750e-01 -3.125000e-01 0.000000e+00
-7.812500e-01 -3.125000e-01 0.000000e+00
-7.031250e-01 -3.125000e-01 0.000000e+00
-6.250000e-01 -3.125000e-01 0.000000e+00
-5.468750e-01 -3.125000e-01 0.000000e+00
-4.687500e-01 -3.125000e-01 0.000000e+00
-3.906250e-01 -3.125000e-01 0.000000e+00
-3.125000e-01 -3.125000e-01 0.000000e+00
-2.343750e-01 -3.125000e-01 0.000000e+00
-1.562500e-01 -3.125000e-01 0.000000e+00
-7.812500e-02 -3.125000e-01 0.000000e+00
0.000000e+00 -3.125000e-01 0.000000e+00
7.812500e-02 -3.125000e-01 0.000000e+00
1.562500e-01 -3.125000e-01 0.000000e+00
2.343750e-01 -3.125000e-01 0.000000e+00
3.125000e-01 -3.125000e-01 0.000000e+00
3.906250e-01 -3.125000e-01 0.000000e+00
4.687500e-01 -3.125000e-01 0.000000e+00
5.468750e-01 -3.125000e-01 0.000000e+00
6.250000e-01 -3.125000e-01 0.000000e+00
7.031250e-01 -3.125000e-01 0.000000e+00
7.812500e-01 -3.125000e-01 0.000000e+00
8.593750e-01 -3.125000e-01 0.000000e+00
-9.375000e-01 -2.343750e-01 0.000000e+00
-9.375000e-01 -3.125000e-01 0.000000e+00
-8.593750e-01 -2.343750e-01 0.000000e+00
-7.812500e-01 -2.343750e-01 0.000000e+00
-7.031250e-01 -2.343750e-01 0.000000e+00
-6.250000e-01 -2.343750e-01 0.000000e+00
-5.468750e-01 -2.343750e-01 0.000000e+00
-4.687500e-01 -2.343750e-01 0.000000e+00
-3.906250e-01 -2.343750e-01 0.000000e+00
-3.125000e-01 -2.343750e-01 0.000000e+00
-2.343750e-01 -2.343750e-01 0.000000e+00
-1.562500e-01 -2.343750e-01 0.000000e+00
-7.812500e-02 -2.343750e-01 0.000000e+00
0.000000e+00 -2.343750e-01 0.000000e+00
7.812500e-02 -2.343750e-01 0.000000e+00
1.562500e-01 -2.343750e-01 0.000000e+00
2.343750e-01 -2.343750e-01 0.000000e+00
3.125000e-01 -2.343750e-01 0.000000e+00
3.906250e-01 -2.343750e-01 0.000000e+00
4.687500e-01 -2.343750e-01 0.000000e+00
5.468750e-01 -2.343750e-01 0.000000e+00
6.250000e-01 -2.343750e-01 0.000000e+00
7.031250e-01 -2.343750e-01 0.000000e+00
7.812500e-01 -2.343750e-01 0.000000e+00
8.593750e-01 -2.343750e-01 0.000000e+00
9.375000e-01 -3.125000e-01 0.000000e+00
9.375000e-01 -2.343750e-01 0.000000e+00
-9.375000e-01 -1.562500e-01 0.000000e+00
-8.593750e-01 -1.562500e-01 0.000000e+00
-7.812500e-01 -1.562500e-01 0.000000e+00
-7.031250e-01 -1.562500e-01 0.000000e+00
-6.250000e-01 -1.562500e-01 0.000000e+00
-5.468750e-01 -1.562500e-01 0.000000e+00
-4.687500e-01 -1.562500e-01 0.000000e+00
-3.906250e-01 -1.562500e-01 0.000000e+00
-3.125000e-01 -1.562500e-01 0.000000e+00
-2.343750e-01 -1.562500e-01 0.000000e+00
-1.562500e-01 -1.562500e-01 0.000000e+00
-7.812500e-02 -1.562500e-01 0.000000e+00
0.000000e+00 -1.562500e-01 0.000000e+00
7.812500e-02 -1.562500e-01 0.000000e+00
1.562500e-01 -1.562500e-01 0.000000e+00
2.343750e-01 -1.562500e-01 0.000000e+00
3.125000e-01 -1.562500e-01 0.000000e+00
3.906250e-01 -1.562500e-01 0.000000e+00
4.687500e-01 -1.562500e-01 0.000000e+00
5.468750e-01 -1.562500e-01 0.000000e+00
6.250000e-01 -1.562500e-01 0.000000e+00
7.031250e-01 -1.562500e-01 0.000000e+00
7.812500e-01 -1.562500e-01 0.000000e+00
8.593750e-01 -1.562500e-01 0.000000e+00
9.375000e-01 -1.562500e-01 0.000000e+00
-9.375000e-01 -7.812500e-02 0.000000e+00
-8.593750e-01 -7.812500e-02 0.000000e+00
-7.812500e-01 -7.812500e-02 0.000000e+00
-7.031250e-01 -7.812500e-02 0.000000e+00
-6.250000e-01 -7.812500e-02 0.000000e+00
-5.468750e-01 -7.812500e-02 0.000000e+00
-4.687500e-01 -7.812500e-02 0.000000e+00
-3.906250e-01 -7.812500e-02 0.000000e+00
-3.125000e-01 -7.812500e-02 0.000000e+00
-2.343750e-01 -7.812500e-02 0.000000e+00
-1.562500e-01 -7.812500e-02 0.000000e+00
-7.812500e-02 -7.812500e-02 0.000000e+00
0.000000e+00 -7.812500e-02 0.000000e+00
7.812500e-02 -7.812500e-02 0.000000e+00
1.562500e-01 -7.812500e-02 0.000000e+00
2.343750e-01 -7.812500e-02 0.000000e+00
3.125000e-01 -7.812500e-02 0.000000e+00
3.906250e-01 -7.812500e-02 0.000000e+00
4.687500e-01 -7.812500e-02 0.000000e+00
5.468750e-01 -7.812500e-02 0.000000e+00
6.250000e-01 -7.812500e-02 0.000000e+00
7.031250e-01 -7.812500e-02 0.000000e+00
7.812500e-01 -7.812500e-02 0.000000e+00
[...]
         <CellData Scalars="count">
            <DataArray type="Float64" Name="solution" format="ascii">
4.294229e+00 5.743807e+00 6.745401e+00 7.257381e+00 7.257381e+00 6.745401e+00 5.743807e+00 4.294229e+00 5.254486e+00 7.778582e+00 9.940948e+00 1.165720e+01 1.285098e+01 1.346378e+01 1.346378e+01 1.285098e+01 1.165720e+01 9.940948e+00 7.778582e+00 5.254486e+00 7.259284e+00 1.050496e+01 1.346653e+01 1.603508e+01 1.809608e+01 1.954206e+01 2.028846e+01 2.028846e+01 1.954206e+01 1.809608e+01 1.603508e+01 1.346653e+01 1.050496e+01 7.259284e+00 4.295054e+00 8.307661e+00 1.225190e+01 1.603716e+01 1.954641e+01 2.263784e+01 2.515381e+01 2.693920e+01 2.786760e+01 2.786760e+01 2.693920e+01 2.515381e+01 2.263784e+01 1.954641e+01 1.603716e+01 1.225190e+01 8.307661e+00 4.295054e+00 8.307661e+00 1.285468e+01 1.739899e+01 2.184104e+01 2.604117e+01 2.981625e+01 3.294688e+01 3.520282e+01 3.638751e+01 3.638751e+01 3.520282e+01 3.294688e+01 2.981625e+01 2.604117e+01 2.184104e+01 1.739899e+01 1.285468e+01 8.307661e+00 7.259284e+00 1.225190e+01 1.739899e+01 2.264155e+01 2.787930e+01 3.295444e+01 3.763665e+01 4.162008e+01 4.455205e+01 4.611196e+01 4.611196e+01 4.455205e+01 4.162008e+01 3.763665e+01 3.295444e+01 2.787930e+01 2.264155e+01 1.739899e+01 1.225190e+01 7.259284e+00 5.254486e+00 1.050496e+01 1.603716e+01 2.184104e+01 2.787930e+01 3.406788e+01 4.024710e+01 4.614649e+01 5.134878e+01 5.529848e+01 5.742854e+01 5.742854e+01 5.529848e+01 5.134878e+01 4.614649e+01 4.024710e+01 3.406788e+01 2.787930e+01 2.184104e+01 1.603716e+01 1.050496e+01 5.254486e+00 7.778582e+00 1.346653e+01 1.954641e+01 2.604117e+01 3.295444e+01 4.024710e+01 4.779522e+01 5.532479e+01 5.532479e+01 4.779522e+01 4.024710e+01 3.295444e+01 2.604117e+01 1.954641e+01 1.346653e+01 7.778582e+00 4.294229e+00 9.940948e+00 1.603508e+01 2.263784e+01 2.981625e+01 3.763665e+01 4.614649e+01 5.532479e+01 6.803122e+01 6.803429e+01 6.803429e+01 6.803122e+01 5.532479e+01 4.614649e+01 3.763665e+01 2.981625e+01 2.263784e+01 1.603508e+01 9.940948e+00 4.294229e+00 5.743807e+00 1.165720e+01 1.809608e+01 2.515381e+01 3.294688e+01 4.162008e+01 5.134878e+01 6.803428e+01 6.804038e+01 6.804344e+01 6.804344e+01 6.804038e+01 6.803428e+01 5.134878e+01 4.162008e+01 3.294688e+01 2.515381e+01 1.809608e+01 1.165720e+01 5.743807e+00 6.745401e+00 1.285098e+01 1.954206e+01 2.693920e+01 3.520282e+01 4.455205e+01 5.529848e+01 6.803122e+01 6.804038e+01 6.804649e+01 6.804954e+01 6.804954e+01 6.804649e+01 6.804038e+01 6.803122e+01 5.529848e+01 4.455205e+01 3.520282e+01 2.693920e+01 1.954206e+01 1.285098e+01 6.745401e+00 7.257381e+00 1.346378e+01 2.028846e+01 2.786760e+01 3.638751e+01 4.611196e+01 5.742854e+01 6.803429e+01 6.804344e+01 6.804954e+01 6.805259e+01 6.805259e+01 6.804954e+01 6.804344e+01 6.803429e+01 5.742854e+01 4.611196e+01 3.638751e+01 2.786760e+01 2.028846e+01 1.346378e+01 7.257381e+00 7.257381e+00 1.346378e+01 2.028846e+01 2.786760e+01 3.638751e+01 4.611196e+01 5.742854e+01 6.803429e+01 6.804344e+01 6.804954e+01 6.805259e+01 6.805259e+01 6.804954e+01 6.804344e+01 6.803429e+01 5.742854e+01 4.611196e+01 3.638751e+01 2.786760e+01 2.028846e+01 1.346378e+01 7.257381e+00 6.745401e+00 1.285098e+01 1.954206e+01 2.693920e+01 3.520282e+01 4.455205e+01 5.529848e+01 6.803122e+01 6.804038e+01 6.804649e+01 6.804954e+01 6.804954e+01 6.804649e+01 6.804038e+01 6.803122e+01 5.529848e+01 4.455205e+01 3.520282e+01 2.693920e+01 1.954206e+01 1.285098e+01 6.745401e+00 5.743807e+00 1.165720e+01 1.809608e+01 2.515381e+01 3.294688e+01 4.162008e+01 5.134878e+01 6.803428e+01 6.804038e+01 6.804344e+01 6.804344e+01 6.804038e+01 6.803428e+01 5.134878e+01 4.162008e+01 3.294688e+01 2.515381e+01 1.809608e+01 1.165720e+01 5.743807e+00 4.294229e+00 9.940948e+00 1.603508e+01 2.263784e+01 2.981625e+01 3.763665e+01 4.614649e+01 5.532479e+01 6.803122e+01 6.803429e+01 6.803429e+01 6.803122e+01 5.532479e+01 4.614649e+01 3.763665e+01 2.981625e+01 2.263784e+01 1.603508e+01 9.940948e+00 4.294229e+00 7.778582e+00 1.346653e+01 1.954641e+01 2.604117e+01 3.295444e+01 4.024710e+01 4.779522e+01 5.532479e+01 5.532479e+01 4.779522e+01 4.024710e+01 3.295444e+01 2.604117e+01 1.954641e+01 1.346653e+01 7.778582e+00 5.254486e+00 1.050496e+01 1.603716e+01 2.184104e+01 2.787930e+01 3.406788e+01 4.024710e+01 4.614649e+01 5.134878e+01 5.529848e+01 5.742854e+01 5.742854e+01 5.529848e+01 5.134878e+01 4.614649e+01 4.024710e+01 3.406788e+01 2.787930e+01 2.184104e+01 1.603716e+01 1.050496e+01 5.254486e+00 7.259284e+00 1.225190e+01 1.739899e+01 2.264155e+01 2.787930e+01 3.295444e+01 3.763665e+01 4.162008e+01 4.455205e+01 4.611196e+01 4.611196e+01 4.455205e+01 4.162008e+01 3.763665e+01 3.295444e+01 2.787930e+01 2.264155e+01 1.739899e+01 1.225190e+01 7.259284e+00 8.307661e+00 1.285468e+01 1.739899e+01 2.184104e+01 2.604117e+01 2.981625e+01 3.294688e+01 3.520282e+01 3.638751e+01 3.638751e+01 3.520282e+01 3.294688e+01 2.981625e+01 2.604117e+01 2.184104e+01 1.739899e+01 1.285468e+01 8.307661e+00 4.295054e+00 8.307661e+00 1.225190e+01 1.603716e+01 1.954641e+01 2.263784e+01 2.515381e+01 2.693920e+01 2.786760e+01 2.786760e+01 2.693920e+01 2.515381e+01 2.263784e+01 1.954641e+01 1.603716e+01 1.225190e+01 8.307661e+00 4.295054e+00 7.259284e+00 1.050496e+01 1.346653e+01 1.603508e+01 1.809608e+01 1.954206e+01 2.028846e+01 2.028846e+01 1.954206e+01 1.809608e+01 1.603508e+01 1.346653e+01 1.050496e+01 7.259284e+00 5.254486e+00 7.778582e+00 9.940948e+00 1.165720e+01 1.285098e+01 1.346378e+01 1.346378e+01 1.285098e+01 1.165720e+01 9.940948e+00 7.778582e+00 5.254486e+00 4.294229e+00 5.743807e+00 6.745401e+00 7.257381e+00 7.257381e+00 6.745401e+00 5.743807e+00 4.294229e+00 2.012913e+00 8.706622e-01 1.480753e+00 1.910502e+00 2.129650e+00 2.129650e+00 1.910502e+00 1.480753e+00 8.706622e-01 2.012913e+00 2.153712e+00 1.445047e+00 2.505530e+00 2.505530e+00 1.445047e+00 2.153712e+00 2.851301e+00 2.435501e+00 2.435501e+00 2.851301e+00 1.390017e+00 1.390017e+00 3.017653e+00 3.017653e+00 1.390017e+00 1.390017e+00 3.017653e+00 3.017653e+00 2.435501e+00 2.851301e+00 2.851301e+00 2.435501e+00 1.445047e+00 2.153712e+00 2.153712e+00 1.445047e+00 2.505530e+00 2.505530e+00 8.706622e-01 2.012913e+00 2.012913e+00 8.706622e-01 1.480753e+00 1.480753e+00 1.910502e+00 1.910502e+00 2.129650e+00 2.129650e+00 2.129650e+00 2.129650e+00 1.910502e+00 1.910502e+00 1.480753e+00 1.480753e+00 8.706622e-01 2.012913e+00 8.706622e-01 2.012913e+00 2.505530e+00 2.505530e+00 1.445047e+00 2.153712e+00 1.445047e+00 2.153712e+00 2.435501e+00 2.851301e+00 2.435501e+00 2.851301e+00 3.017653e+00 3.017653e+00 1.390017e+00 1.390017e+00 3.017653e+00 3.017653e+00 1.390017e+00 1.390017e+00 2.851301e+00 2.435501e+00 2.851301e+00 2.435501e+00 2.153712e+00 1.445047e+00 2.505530e+00 2.505530e+00 2.153712e+00 1.445047e+00 2.012913e+00 8.706622e-01 1.480753e+00 1.910502e+00 2.129650e+00 2.129650e+00 1.910502e+00 1.480753e+00 2.012913e+00 8.706622e-01 6.185692e+01 6.445336e+01 6.578569e+01 6.578569e+01 6.445336e+01 6.185692e+01 6.270512e+01 6.346448e+01 6.802253e+01 6.802402e+01 6.802402e+01 6.802253e+01 6.270512e+01 6.346448e+01 6.346448e+01 6.270512e+01 6.802453e+01 6.802503e+01 6.802453e+01 6.802503e+01 6.346448e+01 6.270512e+01 6.185692e+01 6.802503e+01 6.802453e+01 6.802503e+01 6.802453e+01 6.185692e+01 6.445336e+01 6.802253e+01 6.802253e+01 6.445336e+01 6.578569e+01 6.802402e+01 6.802402e+01 6.578569e+01 6.578569e+01 6.802402e+01 6.802402e+01 6.578569e+01 6.445336e+01 6.802253e+01 6.802453e+01 6.802253e+01 6.802453e+01 6.445336e+01 6.185692e+01 6.270512e+01 6.802503e+01 6.802503e+01 6.802503e+01 6.802503e+01 6.185692e+01 6.270512e+01 6.346448e+01 6.346448e+01 6.802453e+01 6.802253e+01 6.802402e+01 6.802402e+01 6.802453e+01 6.802253e+01 6.346448e+01 6.346448e+01 6.270512e+01 6.185692e+01 6.445336e+01 6.578569e+01 6.578569e+01 6.445336e+01 6.270512e+01 6.185692e+01 
            </DataArray>
         </CellData>
      </Piece>  
   </UnstructuredGrid>
</VTKFile>
