<VTKFile type="UnstructuredGrid" version="0.1" byte_order="LittleEndian">
   <UnstructuredGrid>
      <Piece  NumberOfPoints="1730"  NumberOfCells="1520">
         <Points>
            <DataArray type="Float32" NumberOfComponents="3" format="ascii">
-3.125000e-01 -1.640625e+00 0.000000e+00
-3.125000e-01 -1.718750e+00 0.000000e+00
-2.343750e-01 -1.718750e+00 0.000000e+00
-2.343750e-01 -1.640625e+00 0.000000e+00
-1.562500e-01 -1.718750e+00 0.000000e+00
-1.562500e-01 -1.640625e+00 0.000000e+00
-7.812500e-02 -1.718750e+00 0.000000e+00
-7.812500e-02 -1.640625e+00 0.000000e+00
0.000000e+00 -1.718750e+00 0.000000e+00
0.000000e+00 -1.640625e+00 0.000000e+00
-4.687500e-01 -1.562500e+00 0.000000e+00
-4.687500e-01 -1.640625e+00 0.000000e+00
-3.906250e-01 -1.640625e+00 0.000000e+00
-3.906250e-01 -1.562500e+00 0.000000e+00
-3.125000e-01 -1.562500e+00 0.000000e+00
-2.343750e-01 -1.562500e+00 0.000000e+00
-1.562500e-01 -1.562500e+00 0.000000e+00
-7.812500e-02 -1.562500e+00 0.000000e+00
0.000000e+00 -1.562500e+00 0.000000e+00
7.812500e-02 -1.640625e+00 0.000000e+00
7.812500e-02 -1.562500e+00 0.000000e+00
-6.250000e-01 -1.484375e+00 0.000000e+00
-6.250000e-01 -1.562500e+00 0.000000e+00
-5.468750e-01 -1.562500e+00 0.000000e+00
-5.468750e-01 -1.484375e+00 0.000000e+00
-4.687500e-01 -1.484375e+00 0.000000e+00
-3.906250e-01 -1.484375e+00 0.000000e+00
-3.125000e-01 -1.484375e+00 0.000000e+00
-2.343750e-01 -1.484375e+00 0.000000e+00
-1.562500e-01 -1.484375e+00 0.000000e+00
-7.812500e-02 -1.484375e+00 0.000000e+00
0.000000e+00 -1.484375e+00 0.000000e+00
7.812500e-02 -1.484375e+00 0.000000e+00
1.562500e-01 -1.562500e+00 0.000000e+00
1.562500e-01 -1.484375e+00 0.000000e+00
3.906250e-01 -1.484375e+00 0.000000e+00
3.906250e-01 -1.562500e+00 0.000000e+00
4.687500e-01 -1.562500e+00 0.000000e+00
4.687500e-01 -1.484375e+00 0.000000e+00
5.468750e-01 -1.562500e+00 0.000000e+00
5.468750e-01 -1.484375e+00 0.000000e+00
6.250000e-01 -1.562500e+00 0.000000e+00
6.250000e-01 -1.484375e+00 0.000000e+00
7.031250e-01 -1.562500e+00 0.000000e+00
7.031250e-01 -1.484375e+00 0.000000e+00
7.812500e-01 -1.562500e+00 0.000000e+00
7.812500e-01 -1.484375e+00 0.000000e+00
8.593750e-01 -1.562500e+00 0.000000e+00
8.593750e-01 -1.484375e+00 0.000000e+00
-7.031250e-01 -1.406250e+00 0.000000e+00
-7.031250e-01 -1.484375e+00 0.000000e+00
-6.250000e-01 -1.406250e+00 0.000000e+00
-5.468750e-01 -1.406250e+00 0.000000e+00
-4.687500e-01 -1.406250e+00 0.000000e+00
-3.906250e-01 -1.406250e+00 0.000000e+00
-3.125000e-01 -1.406250e+00 0.000000e+00
-2.343750e-01 -1.406250e+00 0.000000e+00
-1.562500e-01 -1.406250e+00 0.000000e+00
-7.812500e-02 -1.406250e+00 0.000000e+00
0.000000e+00 -1.406250e+00 0.000000e+00
7.812500e-02 -1.406250e+00 0.000000e+00
1.562500e-01 -1.406250e+00 0.000000e+00
2.343750e-01 -1.484375e+00 0.000000e+00
2.343750e-01 -1.406250e+00 0.000000e+00
3.125000e-01 -1.484375e+00 0.000000e+00
3.125000e-01 -1.406250e+00 0.000000e+00
3.906250e-01 -1.406250e+00 0.000000e+00
4.687500e-01 -1.406250e+00 0.000000e+00
5.468750e-01 -1.406250e+00 0.000000e+00
6.250000e-01 -1.406250e+00 0.000000e+00
7.031250e-01 -1.406250e+00 0.000000e+00
7.812500e-01 -1.406250e+00 0.000000e+00
8.593750e-01 -1.406250e+00 0.000000e+00
-7.812500e-01 -1.328125e+00 0.000000e+00
-7.812500e-01 -1.406250e+00 0.000000e+00
-7.031250e-01 -1.328125e+00 0.000000e+00
-6.250000e-01 -1.328125e+00 0.000000e+00
-5.468750e-01 -1.328125e+00 0.000000e+00
-4.687500e-01 -1.328125e+00 0.000000e+00
-3.906250e-01 -1.328125e+00 0.000000e+00
-3.125000e-01 -1.328125e+00 0.000000e+00
-2.343750e-01 -1.328125e+00 0.000000e+00
-1.562500e-01 -1.328125e+00 0.000000e+00
-7.812500e-02 -1.328125e+00 0.000000e+00
0.000000e+00 -1.328125e+00 0.000000e+00
7.812500e-02 -1.328125e+00 0.000000e+00
1.562500e-01 -1.328125e+00 0.000000e+00
2.343750e-01 -1.328125e+00 0.000000e+00
3.125000e-01 -1.328125e+00 0.000000e+00
3.906250e-01 -1.328125e+00 0.000000e+00
4.687500e-01 -1.328125e+00 0.000000e+00
5.468750e-01 -1.328125e+00 0.000000e+00
6.250000e-01 -1.328125e+00 0.000000e+00
7.031250e-01 -1.328125e+00 0.000000e+00
7.812500e-01 -1.328125e+00 0.000000e+00
8.593750e-01 -1.328125e+00 0.000000e+00
-8.593750e-01 -1.250000e+00 0.000000e+00
-8.593750e-01 -1.328125e+00 0.000000e+00
-7.812500e-01 -1.250000e+00 0.000000e+00
-7.031250e-01 -1.250000e+00 0.000000e+00
-6.250000e-01 -1.250000e+00 0.000000e+00
-5.468750e-01 -1.250000e+00 0.000000e+00
-4.687500e-01 -1.250000e+00 0.000000e+00
-3.906250e-01 -1.250000e+00 0.000000e+00
-3.125000e-01 -1.250000e+00 0.000000e+00
-2.343750e-01 -1.250000e+00 0.000000e+00
-1.562500e-01 -1.250000e+00 0.000000e+00
-7.812500e-02 -1.250000e+00 0.000000e+00
0.000000e+00 -1.250000e+00 0.000000e+00
7.812500e-02 -1.250000e+00 0.000000e+00
1.562500e-01 -1.250000e+00 0.000000e+00
2.343750e-01 -1.250000e+00 0.000000e+00
3.125000e-01 -1.250000e+00 0.000000e+00
3.906250e-01 -1.250000e+00 0.000000e+00
4.687500e-01 -1.250000e+00 0.000000e+00
5.468750e-01 -1.250000e+00 0.000000e+00
6.250000e-01 -1.250000e+00 0.000000e+00
7.031250e-01 -1.250000e+00 0.000000e+00
7.812500e-01 -1.250000e+00 0.000000e+00
8.593750e-01 -1.250000e+00 0.000000e+00
-9.375000e-01 -1.171875e+00 0.000000e+00
-9.375000e-01 -1.250000e+00 0.000000e+00
-8.593750e-01 -1.171875e+00 0.000000e+00
-7.812500e-01 -1.171875e+00 0.000000e+00
-7.031250e-01 -1.171875e+00 0.000000e+00
-6.250000e-01 -1.171875e+00 0.000000e+00
-5.468750e-01 -1.171875e+00 0.000000e+00
-4.687500e-01 -1.171875e+00 0.000000e+00
-3.906250e-01 -1.171875e+00 0.000000e+00
-3.125000e-01 -1.171875e+00 0.000000e+00
-2.343750e-01 -1.171875e+00 0.000000e+00
-1.562500e-01 -1.171875e+00 0.000000e+00
-7.812500e-02 -1.171875e+00 0.000000e+00
0.000000e+00 -1.171875e+00 0.000000e+00
7.812500e-02 -1.171875e+00 0.000000e+00
1.562500e-01 -1.171875e+00 0.000000e+00
2.343750e-01 -1.171875e+00 0.000000e+00
3.125000e-01 -1.171875e+00 0.000000e+00
3.906250e-01 -1.171875e+00 0.000000e+00
4.687500e-01 -1.171875e+00 0.000000e+00
5.468750e-01 -1.171875e+00 0.000000e+00
6.250000e-01 -1.171875e+00 0.000000e+00
7.031250e-01 -1.171875e+00 0.000000e+00
7.812500e-01 -1.171875e+00 0.000000e+00
8.593750e-01 -1.171875e+00 0.000000e+00
9.375000e-01 -1.250000e+00 0.000000e+00
9.375000e-01 -1.171875e+00 0.000000e+00
-1.015625e+00 -1.093750e+00 0.000000e+00
-1.015625e+00 -1.171875e+00 0.000000e+00
-9.375000e-01 -1.093750e+00 0.000000e+00
-8.593750e-01 -1.093750e+00 0.000000e+00
-7.812500e-01 -1.093750e+00 0.000000e+00
-7.031250e-01 -1.093750e+00 0.000000e+00
-6.250000e-01 -1.093750e+00 0.000000e+00
-5.468750e-01 -1.093750e+00 0.000000e+00
-4.687500e-01 -1.093750e+00 0.000000e+00
-3.906250e-01 -1.093750e+00 0.000000e+00
-3.125000e-01 -1.093750e+00 0.000000e+00
-2.343750e-01 -1.093750e+00 0.000000e+00
-1.562500e-01 -1.093750e+00 0.000000e+00
-7.812500e-02 -1.093750e+00 0.000000e+00
0.000000e+00 -1.093750e+00 0.000000e+00
7.812500e-02 -1.093750e+00 0.000000e+00
1.562500e-01 -1.093750e+00 0.000000e+00
2.343750e-01 -1.093750e+00 0.000000e+00
3.125000e-01 -1.093750e+00 0.000000e+00
3.906250e-01 -1.093750e+00 0.000000e+00
4.687500e-01 -1.093750e+00 0.000000e+00
5.468750e-01 -1.093750e+00 0.000000e+00
6.250000e-01 -1.093750e+00 0.000000e+00
7.031250e-01 -1.093750e+00 0.000000e+00
7.812500e-01 -1.093750e+00 0.000000e+00
8.593750e-01 -1.093750e+00 0.000000e+00
9.375000e-01 -1.093750e+00 0.000000e+00
1.015625e+00 -1.171875e+00 0.000000e+00
1.015625e+00 -1.093750e+00 0.000000e+00
1.093750e+00 -1.171875e+00 0.000000e+00
1.093750e+00 -1.093750e+00 0.000000e+00
-1.093750e+00 -1.015625e+00 0.000000e+00
-1.093750e+00 -1.093750e+00 0.000000e+00
-1.015625e+00 -1.015625e+00 0.000000e+00
-9.375000e-01 -1.015625e+00 0.000000e+00
-8.593750e-01 -1.015625e+00 0.000000e+00
-7.812500e-01 -1.015625e+00 0.000000e+00
-7.031250e-01 -1.015625e+00 0.000000e+00
-6.250000e-01 -1.015625e+00 0.000000e+00
-5.468750e-01 -1.015625e+00 0.000000e+00
-4.687500e-01 -1.015625e+00 0.000000e+00
-3.906250e-01 -1.015625e+00 0.000000e+00
-3.125000e-01 -1.015625e+00 0.000000e+00
-2.343750e-01 -1.015625e+00 0.000000e+00
-1.562500e-01 -1.015625e+00 0.000000e+00
-7.812500e-02 -1.015625e+00 0.000000e+00
0.000000e+00 -1.015625e+00 0.000000e+00
7.812500e-02 -1.015625e+00 0.000000e+00
1.562500e-01 -1.015625e+00 0.000000e+00
2.343750e-01 -1.015625e+00 0.000000e+00
3.125000e-01 -1.015625e+00 0.000000e+00
3.906250e-01 -1.015625e+00 0.000000e+00
4.687500e-01 -1.015625e+00 0.000000e+00
5.468750e-01 -1.015625e+00 0.000000e+00
6.250000e-01 -1.015625e+00 0.000000e+00
7.031250e-01 -1.015625e+00 0.000000e+00
7.812500e-01 -1.015625e+00 0.000000e+00
8.593750e-01 -1.015625e+00 0.000000e+00
9.375000e-01 -1.015625e+00 0.000000e+00
1.015625e+00 -1.015625e+00 0.000000e+00
1.093750e+00 -1.015625e+00 0.000000e+00
1.171875e+00 -1.093750e+00 0.000000e+00
1.171875e+00 -1.015625e+00 0.000000e+00
1.250000e+00 -1.093750e+00 0.000000e+00
1.250000e+00 -1.015625e+00 0.000000e+00
1.328125e+00 -1.093750e+00 0.000000e+00
1.328125e+00 -1.015625e+00 0.000000e+00
-1.171875e+00 -9.375000e-01 0.000000e+00
-1.171875e+00 -1.015625e+00 0.000000e+00
-1.093750e+00 -9.375000e-01 0.000000e+00
-1.015625e+00 -9.375000e-01 0.000000e+00
-9.375000e-01 -9.375000e-01 0.000000e+00
-8.593750e-01 -9.375000e-01 0.000000e+00
-7.812500e-01 -9.375000e-01 0.000000e+00
-7.031250e-01 -9.375000e-01 0.000000e+00
-6.250000e-01 -9.375000e-01 0.000000e+00
-5.468750e-01 -9.375000e-01 0.000000e+00
-4.687500e-01 -9.375000e-01 0.000000e+00
-3.906250e-01 -9.375000e-01 0.000000e+00
-3.125000e-01 -9.375000e-01 0.000000e+00
-2.343750e-01 -9.375000e-01 0.000000e+00
-1.562500e-01 -9.375000e-01 0.000000e+00
-7.812500e-02 -9.375000e-01 0.000000e+00
0.000000e+00 -9.375000e-01 0.000000e+00
7.812500e-02 -9.375000e-01 0.000000e+00
1.562500e-01 -9.375000e-01 0.000000e+00
2.343750e-01 -9.375000e-01 0.000000e+00
3.125000e-01 -9.375000e-01 0.000000e+00
3.906250e-01 -9.375000e-01 0.000000e+00
4.687500e-01 -9.375000e-01 0.000000e+00
5.468750e-01 -9.375000e-01 0.000000e+00
6.250000e-01 -9.375000e-01 0.000000e+00
7.031250e-01 -9.375000e-01 0.000000e+00
[...]
         <CellData Scalars="count">
            <DataArray type="Float64" Name="solution" format="ascii">
2.386651e-01 4.109308e-01 4.027682e-01 2.245203e-01 3.306249e-01 6.781652e-01 1.070898e+00 1.310224e+00 1.285046e+00 9.785650e-01 4.075579e-01 3.438639e-01 7.699925e-01 1.360241e+00 1.892756e+00 2.259120e+00 2.454205e+00 2.426826e+00 2.138716e+00 1.525677e+00 6.244443e-01 3.412671e-01 5.490604e-01 5.313893e-01 4.322750e-01 2.850411e-01 1.045252e-01 4.804412e-01 1.325925e+00 2.074762e+00 2.707501e+00 3.235569e+00 3.616956e+00 3.824098e+00 3.828368e+00 3.602361e+00 3.122541e+00 2.344790e+00 1.559296e+00 1.335637e+00 1.310238e+00 1.601215e+00 1.729733e+00 1.586701e+00 1.281307e+00 8.492511e-01 3.131693e-01 5.566831e-01 1.604311e+00 2.610681e+00 3.451832e+00 4.157624e+00 4.728573e+00 5.148296e+00 5.397583e+00 5.459359e+00 5.323243e+00 4.992387e+00 4.514654e+00 4.032296e+00 3.697147e+00 3.493137e+00 3.359963e+00 3.156536e+00 2.794000e+00 2.254710e+00 1.523360e+00 5.793104e-01 6.102135e-01 1.796468e+00 2.992605e+00 4.044978e+00 4.962010e+00 5.739462e+00 6.372709e+00 6.850340e+00 7.159515e+00 7.290736e+00 7.242873e+00 7.031245e+00 6.697105e+00 6.311989e+00 5.935167e+00 5.578018e+00 5.205496e+00 4.757166e+00 4.175179e+00 3.417129e+00 2.421718e+00 1.035639e+00 6.462390e-01 1.932706e+00 3.273883e+00 4.502636e+00 5.619645e+00 6.609913e+00 7.464442e+00 8.172229e+00 8.721398e+00 9.100792e+00 9.303571e+00 9.331269e+00 9.197684e+00 8.931600e+00 8.570779e+00 8.147368e+00 7.671384e+00 7.130032e+00 6.494244e+00 5.730804e+00 4.803758e+00 3.665676e+00 2.232553e+00 7.507448e-01 6.645796e-01 2.016782e+00 3.466444e+00 4.838351e+00 6.129828e+00 7.319934e+00 8.393829e+00 9.335751e+00 1.013049e+01 1.076294e+01 1.122004e+01 1.149365e+01 1.158342e+01 1.149896e+01 1.125929e+01 1.088856e+01 1.040763e+01 9.827707e+00 9.148123e+00 8.359447e+00 7.447552e+00 6.397415e+00 5.194857e+00 3.848583e+00 2.396767e+00 1.181507e+00 4.979231e-01 6.621604e-01 2.044169e+00 3.567386e+00 5.050846e+00 6.488765e+00 7.856977e+00 9.137161e+00 1.030947e+01 1.135431e+01 1.225135e+01 1.298061e+01 1.352414e+01 1.386924e+01 1.401158e+01 1.395628e+01 1.371763e+01 1.331460e+01 1.276489e+01 1.208203e+01 1.127476e+01 1.034754e+01 9.302939e+00 8.144409e+00 6.882762e+00 5.546318e+00 4.205141e+00 2.974873e+00 1.862972e+00 9.572629e-01 5.563106e-01 2.301388e-01 6.278921e-01 1.999887e+00 3.564286e+00 5.130251e+00 6.686553e+00 8.207262e+00 9.672865e+00 1.106192e+01 1.235255e+01 1.352067e+01 1.352096e+01 1.245319e+01 1.127305e+01 9.997912e+00 8.650161e+00 7.264049e+00 5.889047e+00 4.583217e+00 3.388574e+00 2.361558e+00 1.536240e+00 8.114003e-01 2.157473e-01 4.975900e-01 1.827225e+00 3.424343e+00 5.057194e+00 6.708972e+00 8.356252e+00 9.981531e+00 1.156481e+01 1.308493e+01 2.012140e+01 2.159823e+01 2.260593e+01 2.310829e+01 2.308962e+01 2.255618e+01 2.153505e+01 2.007050e+01 1.333906e+01 1.192576e+01 1.045935e+01 8.971925e+00 7.500608e+00 6.082540e+00 4.749816e+00 3.528527e+00 2.421672e+00 1.407943e+00 4.755832e-01 1.198249e+00 3.050539e+00 4.794149e+00 6.537270e+00 8.290645e+00 1.004846e+01 1.179721e+01 1.351962e+01 2.094035e+01 2.354201e+01 2.575921e+01 2.750952e+01 2.871966e+01 2.933500e+01 2.932812e+01 2.870328e+01 2.749574e+01 2.576593e+01 2.359021e+01 2.105137e+01 1.390761e+01 1.229033e+01 1.066411e+01 9.057508e+00 7.495662e+00 5.997546e+00 4.572821e+00 3.218909e+00 1.922228e+00 6.666478e-01 7.252064e-01 2.403476e+00 4.312361e+00 6.158249e+00 8.003810e+00 9.867420e+00 1.174885e+01 2.287117e+01 2.620769e+01 2.924198e+01 3.186531e+01 3.396415e+01 3.543287e+01 3.618939e+01 3.618989e+01 3.543741e+01 3.398140e+01 3.190820e+01 2.932595e+01 2.634894e+01 2.308538e+01 1.233608e+01 1.056865e+01 8.843697e+00 7.169338e+00 5.544557e+00 3.958625e+00 2.394683e+00 8.377730e-01 6.264641e-01 2.053157e+00 3.790637e+00 5.625406e+00 7.516726e+00 9.449434e+00 1.142496e+01 1.343996e+01 1.975238e+01 2.387025e+01 2.790846e+01 3.177498e+01 3.535196e+01 3.849711e+01 4.105287e+01 4.286481e+01 4.380788e+01 4.381264e+01 4.288139e+01 4.108788e+01 3.856042e+01 3.545531e+01 3.193071e+01 2.812844e+01 2.416549e+01 2.013305e+01 1.398034e+01 1.203602e+01 1.013956e+01 8.289925e+00 6.476149e+00 4.676652e+00 2.862104e+00 1.009405e+00 5.300305e-01 1.780360e+00 3.342232e+00 5.054634e+00 6.896415e+00 8.833732e+00 1.085151e+01 1.294211e+01 2.385412e+01 2.848801e+01 3.311292e+01 3.762758e+01 4.189091e+01 4.571858e+01 4.889026e+01 5.117522e+01 5.237714e+01 5.238375e+01 5.119707e+01 4.893295e+01 4.579032e+01 4.200115e+01 3.778581e+01 3.332769e+01 2.876637e+01 2.420119e+01 1.345413e+01 1.138696e+01 9.372752e+00 7.391942e+00 5.410250e+00 3.373501e+00 1.215424e+00 3.770868e-01 1.455190e+00 2.869309e+00 4.453376e+00 6.195404e+00 8.073355e+00 1.007218e+01 1.218066e+01 2.282894e+01 2.789164e+01 3.310937e+01 3.842092e+01 4.372400e+01 4.885900e+01 5.359365e+01 5.761995e+01 6.058320e+01 6.216169e+01 6.216809e+01 6.060451e+01 5.766189e+01 5.366416e+01 4.896651e+01 4.387607e+01 3.862338e+01 3.336566e+01 2.820224e+01 2.319049e+01 1.257968e+01 1.041992e+01 8.304952e+00 6.195083e+00 4.014676e+00 1.579672e+00 8.445135e-01 2.270670e+00 3.770244e+00 5.411289e+00 7.199150e+00 9.131028e+00 1.120150e+01 1.340695e+01 2.089097e+01 2.618553e+01 3.176960e+01 3.763022e+01 4.372777e+01 4.997620e+01 5.621387e+01 6.216773e+01 6.741688e+01 7.140138e+01 7.355083e+01 7.355483e+01 7.141615e+01 6.744984e+01 6.222834e+01 5.631091e+01 5.011621e+01 4.391437e+01 3.786382e+01 3.204684e+01 2.649842e+01 2.122520e+01 1.370161e+01 1.141977e+01 9.208642e+00 7.035665e+00 4.856832e+00 2.613574e+00 7.382707e-01 3.672099e-01 1.499169e+00 2.964743e+00 4.527037e+00 6.220094e+00 8.059197e+00 1.005019e+01 1.219625e+01 2.353750e+01 2.925035e+01 3.536677e+01 4.190667e+01 4.887144e+01 5.622036e+01 6.382795e+01 7.141769e+01 7.145939e+01 6.390792e+01 5.634462e+01 4.904174e+01 4.212078e+01 3.561841e+01 2.952842e+01 2.382485e+01 1.234777e+01 1.007135e+01 7.881053e+00 5.765981e+00 3.758146e+00 1.945850e+00 5.633840e-01 7.639597e-01 2.107705e+00 3.560452e+00 5.149652e+00 6.881601e+00 8.766859e+00 1.081443e+01 1.303287e+01 2.016854e+01 2.580669e+01 3.191069e+01 3.853769e+01 4.575179e+01 5.361747e+01 6.218135e+01 7.142236e+01 8.422280e+01 8.422592e+01 8.422597e+01 8.422295e+01 7.147931e+01 6.228816e+01 5.377364e+01 4.595261e+01 3.877458e+01 3.217079e+01 2.607202e+01 2.041461e+01 1.317130e+01 1.084926e+01 8.654905e+00 6.590162e+00 4.678557e+00 2.972695e+00 1.509837e+00 4.251759e-01 2.855903e-01 1.245165e+00 2.565641e+00 4.023929e+00 5.629541e+00 7.389396e+00 9.312181e+00 1.140800e+01 1.368909e+01 2.171892e+01 2.761147e+01 3.404930e+01 4.112189e+01 4.894302e+01 5.765608e+01 6.743655e+01 8.422589e+01 8.423205e+01 8.423517e+01 8.423522e+01 8.423221e+01 8.422616e+01 6.752665e+01 5.780290e+01 4.913907e+01 4.135671e+01 3.430921e+01 2.787898e+01 2.197203e+01 1.385694e+01 1.150117e+01 9.303712e+00 7.264751e+00 5.398359e+00 3.728426e+00 2.285716e+00 1.089361e+00 2.611281e-01 5.192321e-01 1.603175e+00 2.885667e+00 4.340180e+00 5.955421e+00 7.734516e+00 9.684781e+00 1.181687e+01 1.414524e+01 2.279669e+01 2.887417e+01 3.555718e+01 4.296250e+01 5.124804e+01 6.063166e+01 7.142548e+01 8.422288e+01 8.423209e+01 8.423826e+01 8.424137e+01 8.424142e+01 8.423843e+01 8.423238e+01 8.422327e+01 7.150317e+01 6.077667e+01 5.144972e+01 4.320882e+01 3.583427e+01 2.916580e+01 2.308388e+01 1.437517e+01 1.199661e+01 9.796161e+00 7.769473e+00 5.920667e+00 4.260422e+00 2.799735e+00 1.549153e+00 5.038150e-01 5.896743e-01 1.746364e+00 3.041265e+00 4.496953e+00 6.118160e+00 7.908935e+00 9.876184e+00 1.203032e+01 1.438657e+01 2.336012e+01 2.953612e+01 3.634940e+01 4.393262e+01 5.246959e+01 6.222263e+01 7.357917e+01 8.422604e+01 8.423524e+01 8.424141e+01 8.424452e+01 8.424458e+01 8.424159e+01 8.423555e+01 8.422646e+01 7.365385e+01 6.237646e+01 5.268888e+01 4.420422e+01 3.665980e+01 2.987083e+01 2.370327e+01 1.470322e+01 1.231544e+01 1.011646e+01 8.097172e+00 6.255131e+00 4.591223e+00 3.105417e+00 1.787951e+00 6.058964e-01 5.880748e-01 1.741646e+00 3.033784e+00 4.488559e+00 6.111777e+00 7.907465e+00 9.881465e+00 1.204279e+01 1.440534e+01 2.338824e+01 2.956643e+01 3.637992e+01 4.396154e+01 5.249510e+01 6.224261e+01 7.359038e+01 8.422613e+01 8.423534e+01 8.424150e+01 8.424462e+01 8.424468e+01 8.424170e+01 8.423567e+01 8.422658e+01 7.367706e+01 6.241876e+01 5.274501e+01 4.427180e+01 3.673807e+01 2.996008e+01 2.380466e+01 1.482650e+01 1.244693e+01 1.025815e+01 8.248344e+00 6.411141e+00 4.742936e+00 3.238516e+00 1.883979e+00 6.431753e-01 5.148248e-01 1.588832e+00 2.861324e+00 4.311812e+00 5.933224e+00 7.728193e+00 9.700231e+00 1.185519e+01 1.420350e+01 2.288322e+01 2.896709e+01 3.565054e+01 4.305099e+01 5.132660e+01 6.069458e+01 7.146454e+01 8.422314e+01 8.423237e+01 8.423854e+01 8.424166e+01 8.424174e+01 8.423876e+01 8.423273e+01 8.422364e+01 7.158308e+01 6.090839e+01 5.162031e+01 4.341228e+01 3.606872e+01 2.943238e+01 2.338620e+01 1.474107e+01 1.238891e+01 1.022179e+01 8.227369e+00 6.398066e+00 4.729401e+00 3.218449e+00 1.859711e+00 6.307893e-01 2.814514e-01 1.222170e+00 2.517894e+00 3.964622e+00 5.581138e+00 7.372251e+00 9.336851e+00 1.147530e+01 1.379284e+01 2.187054e+01 2.777296e+01 3.421072e+01 4.127485e+01 4.908009e+01 5.776960e+01 6.751667e+01 8.422635e+01 8.423252e+01 8.423566e+01 8.423574e+01 8.423276e+01 8.422674e+01 6.768754e+01 5.803596e+01 4.942969e+01 4.169773e+01 3.469867e+01 2.831923e+01 2.246942e+01 1.445329e+01 1.214690e+01 1.001353e+01 8.041828e+00 6.224536e+00 4.558193e+00 3.043733e+00 1.697147e+00 5.509557e-01 7.339717e-01 2.022871e+00 3.444935e+00 5.053716e+00 6.843051e+00 8.800567e+00 1.091735e+01 1.319271e+01 2.039691e+01 2.604669e+01 3.214845e+01 3.876238e+01 4.595473e+01 5.379091e+01 6.231687e+01 7.150911e+01 8.422345e+01 8.422660e+01 8.422669e+01 8.422371e+01 7.164688e+01 6.255531e+01 5.412193e+01 4.637008e+01 3.925498e+01 3.271290e+01 2.667955e+01 2.109668e+01 1.397726e+01 1.173268e+01 9.644275e+00 7.702443e+00 5.900809e+00 4.236332e+00 2.709284e+00 1.317204e+00 3.023832e-01 3.408794e-01 1.351163e+00 2.735511e+00 4.343812e+00 6.147051e+00 8.106281e+00 1.020206e+01 1.242862e+01 2.386981e+01 2.957515e+01 3.567164e+01 4.218295e+01 4.911293e+01 5.642190e+01 6.398445e+01 7.152400e+01 7.165364e+01 6.420589e+01 5.673654e+01 4.951702e+01 4.267124e+01 3.623941e+01 3.021954e+01 2.459068e+01 1.333271e+01 1.116281e+01 9.128982e+00 7.223438e+00 5.440486e+00 3.777132e+00 2.239446e+00 8.114802e-01 5.116891e-01 1.780884e+00 3.443567e+00 5.297040e+00 7.278383e+00 9.357259e+00 1.153109e+01 1.380445e+01 2.133284e+01 2.660960e+01 3.216306e+01 3.798584e+01 4.404224e+01 5.024881e+01 5.644551e+01 6.236083e+01 6.757636e+01 7.153676e+01 7.367856e+01 7.369889e+01 7.160555e+01 6.771086e+01 6.257642e+01 5.675023e+01 5.064394e+01 4.452500e+01 3.855199e+01 3.280901e+01 2.733416e+01 2.213864e+01 1.474945e+01 1.254284e+01 1.045716e+01 8.485727e+00 6.622302e+00 4.861330e+00 3.197057e+00 1.614460e+00 3.930406e-01 6.668323e-01 2.327929e+00 4.334341e+00 6.354979e+00 8.418895e+00 1.053453e+01 1.271184e+01 2.336479e+01 2.838067e+01 3.354739e+01 3.880896e+01 4.406674e+01 4.916355e+01 5.386900e+01 5.787710e+01 6.083574e+01 6.242638e+01 6.246446e+01 6.095283e+01 5.807964e+01 5.416276e+01 4.955073e+01 4.454557e+01 3.937497e+01 3.419526e+01 2.910624e+01 2.416707e+01 1.372306e+01 1.163205e+01 9.637341e+00 7.734616e+00 5.918757e+00 4.184531e+00 2.533387e+00 9.377791e-01 1.272488e+00 3.347404e+00 5.387118e+00 7.429224e+00 9.476523e+00 1.154634e+01 1.365478e+01 2.444259e+01 2.900709e+01 3.356966e+01 3.803324e+01 4.225938e+01 4.606530e+01 4.923158e+01 5.152812e+01 5.275894e+01 5.281149e+01 5.168622e+01 4.949589e+01 4.643502e+01 4.273104e+01 3.860059e+01 3.422458e+01 2.974118e+01 2.524913e+01 1.464231e+01 1.259710e+01 1.062477e+01 8.725358e+00 6.896638e+00 5.133921e+00 3.429158e+00 1.762783e+00 4.386997e-01 5.832095e-01 2.322117e+00 4.424919e+00 6.435655e+00 8.395717e+00 1.034137e+01 1.229667e+01 1.427454e+01 2.043907e+01 2.446301e+01 2.842237e+01 3.222949e+01 3.576882e+01 3.889881e+01 4.146135e+01 4.330064e+01 4.428956e+01 4.435595e+01 4.349880e+01 4.178800e+01 3.934793e+01 3.633136e+01 3.289373e+01 2.917492e+01 2.529042e+01 2.132981e+01 1.524698e+01 1.330059e+01 1.139786e+01 9.544203e+00 7.742330e+00 5.992093e+00 4.289830e+00 2.633681e+00 9.880972e-01 1.397741e+00 3.563772e+00 5.491760e+00 7.326585e+00 9.125135e+00 1.091454e+01 1.270760e+01 2.342246e+01 2.668900e+01 2.968457e+01 3.229989e+01 3.441913e+01 3.593304e+01 3.675505e+01 3.683623e+01 3.617441e+01 3.481410e+01 3.283752e+01 3.034990e+01 2.746378e+01 2.428644e+01 1.370083e+01 1.191469e+01 1.014909e+01 8.411417e+00 6.707024e+00 5.039134e+00 3.403346e+00 1.774923e+00 4.500766e-01 1.044983e+00 2.896289e+00 4.629344e+00 6.290131e+00 7.915669e+00 9.527089e+00 1.113343e+01 1.273424e+01 1.432008e+01 2.141683e+01 2.397936e+01 2.619806e+01 2.798603e+01 2.926379e+01 2.996940e+01 3.006758e+01 2.955498e+01 2.846030e+01 2.683929e+01 2.476592e+01 2.232269e+01 1.536996e+01 1.377007e+01 1.214405e+01 1.050769e+01 8.872098e+00 7.245107e+00 5.634263e+00 4.050563e+00 2.507287e+00 9.529705e-01 8.313208e-01 2.354420e+00 3.836109e+00 5.286027e+00 6.718468e+00 8.143139e+00 9.563348e+00 1.097576e+01 1.237061e+01 1.373197e+01 2.052809e+01 2.206609e+01 2.317128e+01 2.379668e+01 2.391520e+01 2.352225e+01 2.263592e+01 2.129473e+01 1.487152e+01 1.349988e+01 1.206855e+01 1.059683e+01 9.099359e+00 7.586275e+00 6.063629e+00 4.534799e+00 3.019014e+00 1.567548e+00 4.138155e-01 6.486841e-01 1.858041e+00 3.075108e+00 4.298491e+00 5.527882e+00 6.762598e+00 7.999952e+00 9.233803e+00 1.045369e+01 1.164557e+01 1.279148e+01 1.386946e+01 1.504372e+01 1.403002e+01 1.290351e+01 1.168869e+01 1.040666e+01 9.074623e+00 7.705895e+00 6.309567e+00 4.888768e+00 3.434690e+00 1.909130e+00 5.674583e-01 4.592175e-01 1.354083e+00 2.307969e+00 3.304727e+00 4.331848e+00 5.378620e+00 6.439441e+00 7.505174e+00 8.564151e+00 9.604483e+00 1.061230e+01 1.156881e+01 1.245117e+01 1.323531e+01 1.389678e+01 1.441180e+01 1.475858e+01 1.491940e+01 1.488442e+01 1.465320e+01 1.423353e+01 1.364024e+01 1.289286e+01 1.201314e+01 1.102324e+01 9.944082e+00 8.794085e+00 7.588478e+00 6.339123e+00 5.055496e+00 3.743285e+00 2.398664e+00 9.455553e-01 2.087833e-01 7.877803e-01 1.498791e+00 2.281435e+00 3.116947e+00 3.980083e+00 4.873087e+00 5.783763e+00 6.692866e+00 7.594853e+00 8.483819e+00 9.342090e+00 1.014563e+01 1.087009e+01 1.149183e+01 1.198701e+01 1.233409e+01 1.251635e+01 1.252411e+01 1.235555e+01 1.201609e+01 1.151714e+01 1.087443e+01 1.010623e+01 9.231798e+00 8.269740e+00 7.236599e+00 6.145514e+00 5.006572e+00 3.828111e+00 2.626030e+00 1.416663e+00 3.890638e-01 2.303576e-01 5.924919e-01 1.208837e+00 1.882584e+00 2.544271e+00 3.290033e+00 4.066603e+00 4.828529e+00 5.595976e+00 6.384518e+00 7.170715e+00 7.919006e+00 8.607642e+00 9.213731e+00 9.711167e+00 1.007565e+01 1.028914e+01 1.034135e+01 1.022979e+01 9.958857e+00 9.538241e+00 8.981635e+00 8.305469e+00 7.527614e+00 6.665918e+00 5.736330e+00 4.750559e+00 3.713116e+00 2.629801e+00 1.502651e+00 4.794346e-01 3.074055e-01 6.549271e-01 9.872169e-01 1.683502e+00 2.379779e+00 2.956122e+00 3.565173e+00 4.288549e+00 5.039601e+00 5.752022e+00 6.426355e+00 7.044994e+00 7.569339e+00 7.969479e+00 8.224594e+00 8.323474e+00 8.264316e+00 8.051955e+00 7.695790e+00 7.208652e+00 6.606370e+00 5.907004e+00 5.129301e+00 4.291031e+00 3.405894e+00 2.471000e+00 1.458625e+00 4.855212e-01 4.062904e-01 7.994659e-01 1.049456e+00 1.374676e+00 2.177556e+00 2.964029e+00 3.612454e+00 4.299775e+00 4.972156e+00 5.553011e+00 6.010196e+00 6.317806e+00 6.464779e+00 6.452731e+00 6.289440e+00 5.984788e+00 5.551217e+00 5.004573e+00 4.364385e+00 3.652963e+00 2.889650e+00 2.108957e+00 1.293264e+00 4.518344e-01 5.176276e-01 1.007643e+00 1.380891e+00 2.193746e+00 2.999673e+00 3.660220e+00 4.203058e+00 4.574213e+00 4.765838e+00 4.792694e+00 4.668616e+00 4.403450e+00 4.007334e+00 3.496947e+00 2.892102e+00 2.231904e+00 1.504317e+00 8.028376e-01 3.448730e-01 5.334564e-01 1.107415e+00 1.878886e+00 2.581127e+00 3.011797e+00 3.231539e+00 3.282475e+00 3.189030e+00 2.954322e+00 2.577887e+00 2.088094e+00 1.473779e+00 8.338800e-01 3.810042e-01 5.014539e-01 1.215171e+00 1.661872e+00 1.861562e+00 1.913282e+00 1.848362e+00 1.654834e+00 1.261626e+00 7.617631e-01 3.629640e-01 2.860279e-01 5.382620e-01 6.305960e-01 6.537838e-01 6.281129e-01 5.391064e-01 2.920981e-01 7.800244e+01 8.061972e+01 8.196252e+01 8.196355e+01 8.062459e+01 7.801626e+01 7.885598e+01 7.962095e+01 8.421404e+01 8.421557e+01 8.421562e+01 8.421418e+01 7.887119e+01 7.963766e+01 7.962172e+01 7.885945e+01 8.421604e+01 8.421655e+01 8.421626e+01 8.421682e+01 7.964091e+01 7.888525e+01 7.800896e+01 8.421657e+01 8.421610e+01 8.421692e+01 8.421650e+01 7.804161e+01 8.062607e+01 8.421414e+01 8.421461e+01 8.064777e+01 8.196848e+01 8.421572e+01 8.421623e+01 8.198453e+01 8.197125e+01 8.421581e+01 8.421637e+01 8.199020e+01 8.063836e+01 8.421441e+01 8.421649e+01 8.421500e+01 8.421706e+01 8.067260e+01 7.804084e+01 7.889233e+01 8.421705e+01 8.421715e+01 8.421758e+01 8.421761e+01 7.810479e+01 7.894929e+01 7.965518e+01 7.965763e+01 8.421672e+01 8.421481e+01 8.421640e+01 8.421650e+01 8.421711e+01 8.421510e+01 7.970434e+01 7.970542e+01 7.890312e+01 7.806075e+01 8.065761e+01 8.198995e+01 8.199486e+01 8.067865e+01 7.895376e+01 7.811236e+01 1.454582e+01 1.498460e+01 1.530612e+01 1.550447e+01 1.557881e+01 1.553288e+01 1.538350e+01 1.515035e+01 1.484055e+01 1.445346e+01 1.446709e+01 1.476015e+01 1.512971e+01 1.671747e+01 1.735064e+01 1.777678e+01 1.797015e+01 1.793471e+01 1.768317e+01 1.723166e+01 1.661237e+01 1.472276e+01 1.517253e+01 1.459853e+01 1.456118e+01 1.473417e+01 1.712927e+01 1.781664e+01 1.826908e+01 1.777156e+01 1.827223e+01 1.720837e+01 1.475512e+01 1.500912e+01 1.395263e+01 1.473158e+01 1.480202e+01 1.776889e+01 1.800108e+01 1.792785e+01 1.821535e+01 1.505732e+01 1.520492e+01 1.441781e+01 1.393529e+01 1.678651e+01 1.835936e+01 1.848797e+01 1.864290e+01 1.881933e+01 1.718874e+01 1.443458e+01 1.475366e+01 1.464227e+01 1.676549e+01 1.721245e+01 1.525289e+01 1.514421e+01 1.462743e+01 1.443733e+01 1.844461e+01 1.829633e+01 1.887608e+01 1.872810e+01 1.511367e+01 1.488213e+01 1.434185e+01 1.792017e+01 1.768385e+01 1.833423e+01 1.807089e+01 1.474212e+01 1.503457e+01 1.469575e+01 1.704996e+01 1.738852e+01 1.535767e+01 1.495587e+01 1.451658e+01 1.823701e+01 1.781477e+01 1.851637e+01 1.806404e+01 1.473588e+01 1.503881e+01 1.676664e+01 1.698294e+01 1.523042e+01 1.545625e+01 1.748611e+01 1.770935e+01 1.565823e+01 1.575482e+01 1.800318e+01 1.826784e+01 1.600354e+01 1.592163e+01 1.827880e+01 1.861397e+01 1.624811e+01 1.594379e+01 1.830369e+01 1.873038e+01 1.637069e+01 1.582367e+01 1.808052e+01 1.861119e+01 1.636183e+01 1.557940e+01 1.762369e+01 1.826197e+01 1.622974e+01 1.522905e+01 1.697525e+01 1.809451e+01 1.771450e+01 1.887503e+01 1.598496e+01 1.479042e+01 1.503258e+01 1.857516e+01 1.938359e+01 1.563839e+01 1.591404e+01 1.546285e+01 1.749756e+01 1.821894e+01 1.837164e+01 1.910110e+01 1.637248e+01 1.488552e+01 1.505452e+01 1.851434e+01 1.895412e+01 1.940124e+01 1.984327e+01 1.583538e+01 1.600835e+01 1.533240e+01 1.539670e+01 1.913763e+01 2.003151e+01 1.628484e+01 1.634977e+01 1.556252e+01 1.752653e+01 1.754080e+01 1.917113e+01 2.011414e+01 1.845909e+01 1.849548e+01 1.651993e+01 1.479076e+01 1.480095e+01 1.559195e+01 1.900375e+01 1.858052e+01 1.996783e+01 1.957404e+01 1.659807e+01 1.577000e+01 1.579690e+01 1.545070e+01 1.539699e+01 1.829327e+01 1.757743e+01 1.866657e+01 1.961016e+01 1.930190e+01 1.860314e+01 1.649827e+01 1.646845e+01 1.512913e+01 1.496189e+01 1.553723e+01 1.819178e+01 1.708106e+01 1.778505e+01 1.833604e+01 1.869302e+01 1.883687e+01 1.875597e+01 1.844824e+01 1.910280e+01 1.793762e+01 1.663489e+01 1.623777e+01 1.608944e+01 1.510141e+01 1.485625e+01 1.531596e+01 1.571953e+01 1.605766e+01 1.631597e+01 1.647177e+01 1.650784e+01 1.642304e+01 1.622040e+01 1.618476e+01 1.590545e+01 
            </DataArray>
         </CellData>
      </Piece>  
   </UnstructuredGrid>
</VTKFile>
