<VTKFile type="UnstructuredGrid" version="0.1" byte_order="LittleEndian">
   <UnstructuredGrid>
      <Piece  NumberOfPoints="2255"  NumberOfCells="2031">
         <Points>
            <DataArray type="Float32" NumberOfComponents="3" format="ascii">
1.562500e-01 -1.953125e+00 0.000000e+00
1.562500e-01 -2.031250e+00 0.000000e+00
2.343750e-01 -2.031250e+00 0.000000e+00
2.343750e-01 -1.953125e+00 0.000000e+00
-1.562500e-01 -1.875000e+00 0.000000e+00
-1.562500e-01 -1.953125e+00 0.000000e+00
-7.812500e-02 -1.953125e+00 0.000000e+00
-7.812500e-02 -1.875000e+00 0.000000e+00
0.000000e+00 -1.953125e+00 0.000000e+00
0.000000e+00 -1.875000e+00 0.000000e+00
7.812500e-02 -1.953125e+00 0.000000e+00
7.812500e-02 -1.875000e+00 0.000000e+00
1.562500e-01 -1.875000e+00 0.000000e+00
2.343750e-01 -1.875000e+00 0.000000e+00
3.125000e-01 -1.953125e+00 0.000000e+00
3.125000e-01 -1.875000e+00 0.000000e+00
-3.906250e-01 -1.796875e+00 0.000000e+00
-3.906250e-01 -1.875000e+00 0.000000e+00
-3.125000e-01 -1.875000e+00 0.000000e+00
-3.125000e-01 -1.796875e+00 0.000000e+00
-2.343750e-01 -1.875000e+00 0.000000e+00
-2.343750e-01 -1.796875e+00 0.000000e+00
-1.562500e-01 -1.796875e+00 0.000000e+00
-7.812500e-02 -1.796875e+00 0.000000e+00
0.000000e+00 -1.796875e+00 0.000000e+00
7.812500e-02 -1.796875e+00 0.000000e+00
1.562500e-01 -1.796875e+00 0.000000e+00
2.343750e-01 -1.796875e+00 0.000000e+00
3.125000e-01 -1.796875e+00 0.000000e+00
3.906250e-01 -1.875000e+00 0.000000e+00
3.906250e-01 -1.796875e+00 0.000000e+00
-5.468750e-01 -1.718750e+00 0.000000e+00
-5.468750e-01 -1.796875e+00 0.000000e+00
-4.687500e-01 -1.796875e+00 0.000000e+00
-4.687500e-01 -1.718750e+00 0.000000e+00
-3.906250e-01 -1.718750e+00 0.000000e+00
-3.125000e-01 -1.718750e+00 0.000000e+00
-2.343750e-01 -1.718750e+00 0.000000e+00
-1.562500e-01 -1.718750e+00 0.000000e+00
-7.812500e-02 -1.718750e+00 0.000000e+00
0.000000e+00 -1.718750e+00 0.000000e+00
7.812500e-02 -1.718750e+00 0.000000e+00
1.562500e-01 -1.718750e+00 0.000000e+00
2.343750e-01 -1.718750e+00 0.000000e+00
3.125000e-01 -1.718750e+00 0.000000e+00
3.906250e-01 -1.718750e+00 0.000000e+00
4.687500e-01 -1.796875e+00 0.000000e+00
4.687500e-01 -1.718750e+00 0.000000e+00
-7.031250e-01 -1.640625e+00 0.000000e+00
-7.031250e-01 -1.718750e+00 0.000000e+00
-6.250000e-01 -1.718750e+00 0.000000e+00
-6.250000e-01 -1.640625e+00 0.000000e+00
-5.468750e-01 -1.640625e+00 0.000000e+00
-4.687500e-01 -1.640625e+00 0.000000e+00
-3.906250e-01 -1.640625e+00 0.000000e+00
-3.125000e-01 -1.640625e+00 0.000000e+00
-2.343750e-01 -1.640625e+00 0.000000e+00
-1.562500e-01 -1.640625e+00 0.000000e+00
-7.812500e-02 -1.640625e+00 0.000000e+00
0.000000e+00 -1.640625e+00 0.000000e+00
7.812500e-02 -1.640625e+00 0.000000e+00
1.562500e-01 -1.640625e+00 0.000000e+00
2.343750e-01 -1.640625e+00 0.000000e+00
3.125000e-01 -1.640625e+00 0.000000e+00
3.906250e-01 -1.640625e+00 0.000000e+00
4.687500e-01 -1.640625e+00 0.000000e+00
5.468750e-01 -1.718750e+00 0.000000e+00
5.468750e-01 -1.640625e+00 0.000000e+00
6.250000e-01 -1.718750e+00 0.000000e+00
6.250000e-01 -1.640625e+00 0.000000e+00
7.031250e-01 -1.718750e+00 0.000000e+00
7.031250e-01 -1.640625e+00 0.000000e+00
7.812500e-01 -1.718750e+00 0.000000e+00
7.812500e-01 -1.640625e+00 0.000000e+00
8.593750e-01 -1.718750e+00 0.000000e+00
8.593750e-01 -1.640625e+00 0.000000e+00
9.375000e-01 -1.718750e+00 0.000000e+00
9.375000e-01 -1.640625e+00 0.000000e+00
1.015625e+00 -1.718750e+00 0.000000e+00
1.015625e+00 -1.640625e+00 0.000000e+00
1.093750e+00 -1.718750e+00 0.000000e+00
1.093750e+00 -1.640625e+00 0.000000e+00
-8.593750e-01 -1.562500e+00 0.000000e+00
-8.593750e-01 -1.640625e+00 0.000000e+00
-7.812500e-01 -1.640625e+00 0.000000e+00
-7.812500e-01 -1.562500e+00 0.000000e+00
-7.031250e-01 -1.562500e+00 0.000000e+00
-6.250000e-01 -1.562500e+00 0.000000e+00
-5.468750e-01 -1.562500e+00 0.000000e+00
-4.687500e-01 -1.562500e+00 0.000000e+00
-3.906250e-01 -1.562500e+00 0.000000e+00
-3.125000e-01 -1.562500e+00 0.000000e+00
-2.343750e-01 -1.562500e+00 0.000000e+00
-1.562500e-01 -1.562500e+00 0.000000e+00
-7.812500e-02 -1.562500e+00 0.000000e+00
0.000000e+00 -1.562500e+00 0.000000e+00
7.812500e-02 -1.562500e+00 0.000000e+00
1.562500e-01 -1.562500e+00 0.000000e+00
2.343750e-01 -1.562500e+00 0.000000e+00
3.125000e-01 -1.562500e+00 0.000000e+00
3.906250e-01 -1.562500e+00 0.000000e+00
4.687500e-01 -1.562500e+00 0.000000e+00
5.468750e-01 -1.562500e+00 0.000000e+00
6.250000e-01 -1.562500e+00 0.000000e+00
7.031250e-01 -1.562500e+00 0.000000e+00
7.812500e-01 -1.562500e+00 0.000000e+00
8.593750e-01 -1.562500e+00 0.000000e+00
9.375000e-01 -1.562500e+00 0.000000e+00
1.015625e+00 -1.562500e+00 0.000000e+00
1.093750e+00 -1.562500e+00 0.000000e+00
-1.015625e+00 -1.484375e+00 0.000000e+00
-1.015625e+00 -1.562500e+00 0.000000e+00
-9.375000e-01 -1.562500e+00 0.000000e+00
-9.375000e-01 -1.484375e+00 0.000000e+00
-8.593750e-01 -1.484375e+00 0.000000e+00
-7.812500e-01 -1.484375e+00 0.000000e+00
-7.031250e-01 -1.484375e+00 0.000000e+00
-6.250000e-01 -1.484375e+00 0.000000e+00
-5.468750e-01 -1.484375e+00 0.000000e+00
-4.687500e-01 -1.484375e+00 0.000000e+00
-3.906250e-01 -1.484375e+00 0.000000e+00
-3.125000e-01 -1.484375e+00 0.000000e+00
-2.343750e-01 -1.484375e+00 0.000000e+00
-1.562500e-01 -1.484375e+00 0.000000e+00
-7.812500e-02 -1.484375e+00 0.000000e+00
0.000000e+00 -1.484375e+00 0.000000e+00
7.812500e-02 -1.484375e+00 0.000000e+00
1.562500e-01 -1.484375e+00 0.000000e+00
2.343750e-01 -1.484375e+00 0.000000e+00
3.125000e-01 -1.484375e+00 0.000000e+00
3.906250e-01 -1.484375e+00 0.000000e+00
4.687500e-01 -1.484375e+00 0.000000e+00
5.468750e-01 -1.484375e+00 0.000000e+00
6.250000e-01 -1.484375e+00 0.000000e+00
7.031250e-01 -1.484375e+00 0.000000e+00
7.812500e-01 -1.484375e+00 0.000000e+00
8.593750e-01 -1.484375e+00 0.000000e+00
9.375000e-01 -1.484375e+00 0.000000e+00
1.015625e+00 -1.484375e+00 0.000000e+00
1.093750e+00 -1.484375e+00 0.000000e+00
1.171875e+00 -1.562500e+00 0.000000e+00
1.171875e+00 -1.484375e+00 0.000000e+00
-1.093750e+00 -1.406250e+00 0.000000e+00
-1.093750e+00 -1.484375e+00 0.000000e+00
-1.015625e+00 -1.406250e+00 0.000000e+00
-9.375000e-01 -1.406250e+00 0.000000e+00
-8.593750e-01 -1.406250e+00 0.000000e+00
-7.812500e-01 -1.406250e+00 0.000000e+00
-7.031250e-01 -1.406250e+00 0.000000e+00
-6.250000e-01 -1.406250e+00 0.000000e+00
-5.468750e-01 -1.406250e+00 0.000000e+00
-4.687500e-01 -1.406250e+00 0.000000e+00
-3.906250e-01 -1.406250e+00 0.000000e+00
-3.125000e-01 -1.406250e+00 0.000000e+00
-2.343750e-01 -1.406250e+00 0.000000e+00
-1.562500e-01 -1.406250e+00 0.000000e+00
-7.812500e-02 -1.406250e+00 0.000000e+00
0.000000e+00 -1.406250e+00 0.000000e+00
7.812500e-02 -1.406250e+00 0.000000e+00
1.562500e-01 -1.406250e+00 0.000000e+00
2.343750e-01 -1.406250e+00 0.000000e+00
3.125000e-01 -1.406250e+00 0.000000e+00
3.906250e-01 -1.406250e+00 0.000000e+00
4.687500e-01 -1.406250e+00 0.000000e+00
5.468750e-01 -1.406250e+00 0.000000e+00
6.250000e-01 -1.406250e+00 0.000000e+00
7.031250e-01 -1.406250e+00 0.000000e+00
7.812500e-01 -1.406250e+00 0.000000e+00
8.593750e-01 -1.406250e+00 0.000000e+00
9.375000e-01 -1.406250e+00 0.000000e+00
1.015625e+00 -1.406250e+00 0.000000e+00
1.093750e+00 -1.406250e+00 0.000000e+00
1.171875e+00 -1.406250e+00 0.000000e+00
-1.250000e+00 -1.328125e+00 0.000000e+00
-1.250000e+00 -1.406250e+00 0.000000e+00
-1.171875e+00 -1.406250e+00 0.000000e+00
-1.171875e+00 -1.328125e+00 0.000000e+00
-1.093750e+00 -1.328125e+00 0.000000e+00
-1.015625e+00 -1.328125e+00 0.000000e+00
-9.375000e-01 -1.328125e+00 0.000000e+00
-8.593750e-01 -1.328125e+00 0.000000e+00
-7.812500e-01 -1.328125e+00 0.000000e+00
-7.031250e-01 -1.328125e+00 0.000000e+00
-6.250000e-01 -1.328125e+00 0.000000e+00
-5.468750e-01 -1.328125e+00 0.000000e+00
-4.687500e-01 -1.328125e+00 0.000000e+00
-3.906250e-01 -1.328125e+00 0.000000e+00
-3.125000e-01 -1.328125e+00 0.000000e+00
-2.343750e-01 -1.328125e+00 0.000000e+00
-1.562500e-01 -1.328125e+00 0.000000e+00
-7.812500e-02 -1.328125e+00 0.000000e+00
0.000000e+00 -1.328125e+00 0.000000e+00
7.812500e-02 -1.328125e+00 0.000000e+00
1.562500e-01 -1.328125e+00 0.000000e+00
2.343750e-01 -1.328125e+00 0.000000e+00
3.125000e-01 -1.328125e+00 0.000000e+00
3.906250e-01 -1.328125e+00 0.000000e+00
4.687500e-01 -1.328125e+00 0.000000e+00
5.468750e-01 -1.328125e+00 0.000000e+00
6.250000e-01 -1.328125e+00 0.000000e+00
7.031250e-01 -1.328125e+00 0.000000e+00
7.812500e-01 -1.328125e+00 0.000000e+00
8.593750e-01 -1.328125e+00 0.000000e+00
9.375000e-01 -1.328125e+00 0.000000e+00
1.015625e+00 -1.328125e+00 0.000000e+00
1.093750e+00 -1.328125e+00 0.000000e+00
1.171875e+00 -1.328125e+00 0.000000e+00
-1.328125e+00 -1.250000e+00 0.000000e+00
-1.328125e+00 -1.328125e+00 0.000000e+00
-1.250000e+00 -1.250000e+00 0.000000e+00
-1.171875e+00 -1.250000e+00 0.000000e+00
-1.093750e+00 -1.250000e+00 0.000000e+00
-1.015625e+00 -1.250000e+00 0.000000e+00
-9.375000e-01 -1.250000e+00 0.000000e+00
-8.593750e-01 -1.250000e+00 0.000000e+00
-7.812500e-01 -1.250000e+00 0.000000e+00
-7.031250e-01 -1.250000e+00 0.000000e+00
-6.250000e-01 -1.250000e+00 0.000000e+00
-5.468750e-01 -1.250000e+00 0.000000e+00
-4.687500e-01 -1.250000e+00 0.000000e+00
-3.906250e-01 -1.250000e+00 0.000000e+00
-3.125000e-01 -1.250000e+00 0.000000e+00
-2.343750e-01 -1.250000e+00 0.000000e+00
-1.562500e-01 -1.250000e+00 0.000000e+00
-7.812500e-02 -1.250000e+00 0.000000e+00
0.000000e+00 -1.250000e+00 0.000000e+00
7.812500e-02 -1.250000e+00 0.000000e+00
1.562500e-01 -1.250000e+00 0.000000e+00
2.343750e-01 -1.250000e+00 0.000000e+00
3.125000e-01 -1.250000e+00 0.000000e+00
3.906250e-01 -1.250000e+00 0.000000e+00
4.687500e-01 -1.250000e+00 0.000000e+00
5.468750e-01 -1.250000e+00 0.000000e+00
6.250000e-01 -1.250000e+00 0.000000e+00
7.031250e-01 -1.250000e+00 0.000000e+00
7.812500e-01 -1.250000e+00 0.000000e+00
8.593750e-01 -1.250000e+00 0.000000e+00
9.375000e-01 -1.250000e+00 0.000000e+00
1.015625e+00 -1.250000e+00 0.000000e+00
1.093750e+00 -1.250000e+00 0.000000e+00
[...]
         <CellData Scalars="count">
            <DataArray type="Float64" Name="solution" format="ascii">
3.772576e-02 2.454117e-01 4.555098e-01 5.084965e-01 5.092757e-01 4.848199e-01 2.223442e-01 2.939099e-01 5.898205e-01 7.795920e-01 1.181403e+00 1.479509e+00 1.573228e+00 1.534891e+00 1.356267e+00 9.501188e-01 3.494838e-01 3.527992e-01 7.779714e-01 1.352493e+00 1.848276e+00 2.188953e+00 2.483380e+00 2.689211e+00 2.759115e+00 2.685118e+00 2.451525e+00 2.025001e+00 1.350959e+00 4.916614e-01 3.790693e-01 8.561465e-01 1.549979e+00 2.223515e+00 2.778618e+00 3.246115e+00 3.610081e+00 3.878983e+00 4.044441e+00 4.085861e+00 3.989570e+00 3.742657e+00 3.328039e+00 2.731738e+00 1.922958e+00 1.164238e+00 9.235312e-01 7.925926e-01 6.838309e-01 5.735318e-01 4.505618e-01 3.017412e-01 1.114895e-01 3.824886e-01 8.816011e-01 1.639109e+00 2.410991e+00 3.099959e+00 3.737571e+00 4.292579e+00 4.755597e+00 5.118768e+00 5.377835e+00 5.525067e+00 5.550258e+00 5.444238e+00 5.200417e+00 4.816812e+00 4.301319e+00 3.698544e+00 3.128082e+00 2.701011e+00 2.364271e+00 2.053527e+00 1.733077e+00 1.376196e+00 9.496668e-01 3.831889e-01 3.509803e-01 8.440645e-01 1.629002e+00 2.458307e+00 3.236695e+00 3.994583e+00 4.699523e+00 5.339165e+00 5.898510e+00 6.365509e+00 6.731065e+00 6.987634e+00 7.128258e+00 7.146279e+00 7.037100e+00 6.799971e+00 6.440531e+00 5.976714e+00 5.445518e+00 4.904946e+00 4.395358e+00 3.914187e+00 3.434583e+00 2.928244e+00 2.366735e+00 1.717863e+00 9.473448e-01 2.368620e-01 4.862310e-01 1.436485e+00 2.329035e+00 3.180933e+00 4.031456e+00 4.853196e+00 5.635703e+00 6.363419e+00 7.021749e+00 7.597109e+00 8.077339e+00 8.452240e+00 8.713487e+00 8.854349e+00 8.870114e+00 8.758994e+00 8.523522e+00 8.172480e+00 7.722926e+00 7.201606e+00 6.639164e+00 6.058299e+00 5.462969e+00 4.842430e+00 4.177629e+00 3.444153e+00 2.611714e+00 1.653685e+00 5.735594e-01 3.376954e-01 8.505319e-01 1.767615e+00 2.825117e+00 3.799265e+00 4.732217e+00 5.637260e+00 6.507684e+00 7.331962e+00 8.096664e+00 8.787641e+00 9.391202e+00 9.894763e+00 1.028736e+01 1.056001e+01 1.070603e+01 1.072155e+01 1.060623e+01 1.036413e+01 1.000450e+01 9.542281e+00 8.996857e+00 8.388652e+00 7.732935e+00 7.035832e+00 6.293673e+00 5.494798e+00 4.619607e+00 3.637646e+00 2.488630e+00 1.001029e+00 4.264006e-01 1.335305e+00 2.273587e+00 3.250364e+00 4.282004e+00 5.308054e+00 6.308020e+00 7.277321e+00 8.207788e+00 9.087797e+00 9.903725e+00 1.064112e+01 1.128557e+01 1.182349e+01 1.224281e+01 1.253363e+01 1.268879e+01 1.270455e+01 1.258113e+01 1.232321e+01 1.194003e+01 1.144496e+01 1.085415e+01 1.018384e+01 9.447343e+00 8.652423e+00 7.800475e+00 6.886463e+00 5.898817e+00 4.816379e+00 3.603064e+00 2.192403e+00 9.852376e-01 3.880849e-01 4.460337e-01 1.453332e+00 2.543541e+00 3.601972e+00 4.670851e+00 5.757164e+00 6.843443e+00 7.913602e+00 8.955668e+00 9.958065e+00 1.090755e+01 1.178933e+01 1.258769e+01 1.328672e+01 1.387116e+01 1.432723e+01 1.464346e+01 1.481163e+01 1.482748e+01 1.469132e+01 1.440827e+01 1.398791e+01 1.344347e+01 1.279038e+01 1.204429e+01 1.121905e+01 1.032501e+01 9.368237e+00 8.350520e+00 7.269843e+00 6.122548e+00 4.909626e+00 3.673380e+00 2.541572e+00 1.548033e+00 7.614262e-01 4.369609e-01 1.730025e-01 4.429645e-01 1.471799e+00 2.625197e+00 3.768659e+00 4.915597e+00 6.069922e+00 7.232875e+00 8.396049e+00 9.547156e+00 1.067337e+01 1.176098e+01 1.279485e+01 1.375834e+01 1.463369e+01 1.540270e+01 1.604761e+01 1.655200e+01 1.690204e+01 1.708758e+01 1.710322e+01 1.694915e+01 1.663125e+01 1.616026e+01 1.555068e+01 1.481928e+01 1.398329e+01 1.305882e+01 1.205958e+01 1.099633e+01 9.877030e+00 8.708174e+00 7.497817e+00 6.263074e+00 5.040423e+00 3.886042e+00 2.843846e+00 1.962500e+00 1.266067e+00 6.574051e-01 1.622135e-01 4.239712e-01 1.434745e+00 2.600936e+00 3.786830e+00 4.995489e+00 6.219714e+00 7.458522e+00 8.708019e+00 9.960641e+00 1.120548e+01 1.242941e+01 1.361737e+01 1.475234e+01 1.581541e+01 1.678609e+01 1.764303e+01 1.836498e+01 1.893175e+01 1.932590e+01 1.953438e+01 1.954963e+01 1.937165e+01 1.900796e+01 1.847156e+01 1.777980e+01 1.695258e+01 1.601036e+01 1.497282e+01 1.385768e+01 1.268017e+01 1.145331e+01 1.018916e+01 8.901299e+00 7.608307e+00 6.336817e+00 5.118231e+00 3.981045e+00 2.946662e+00 2.013870e+00 1.160057e+00 3.735245e-01 3.853768e-01 1.346277e+00 2.493266e+00 3.689231e+00 4.930894e+00 6.205958e+00 7.509247e+00 8.835616e+00 1.017947e+01 1.153269e+01 1.288442e+01 1.422108e+01 1.552641e+01 1.678148e+01 1.796472e+01 1.905225e+01 1.920075e+01 1.813242e+01 1.696399e+01 1.571777e+01 1.441317e+01 1.306707e+01 1.169474e+01 1.031129e+01 8.933339e+00 7.579336e+00 6.267800e+00 5.013293e+00 3.821838e+00 2.687635e+00 1.594858e+00 5.284594e-01 2.908489e-01 1.175586e+00 2.293213e+00 3.483391e+00 4.736847e+00 6.040792e+00 7.388938e+00 8.775344e+00 1.019484e+01 1.164108e+01 1.310578e+01 1.457798e+01 1.604362e+01 1.748528e+01 1.888205e+01 2.564857e+01 2.712272e+01 2.814535e+01 2.867406e+01 2.868654e+01 2.818278e+01 2.718505e+01 2.573550e+01 1.903249e+01 1.763578e+01 1.618739e+01 1.470705e+01 1.321168e+01 1.171622e+01 1.023443e+01 8.778766e+00 7.359065e+00 5.979996e+00 4.638172e+00 3.319994e+00 2.004150e+00 6.716387e-01 7.112894e-01 1.941877e+00 3.153460e+00 4.414967e+00 5.733216e+00 7.107248e+00 8.533504e+00 1.000826e+01 1.152695e+01 1.308378e+01 1.467086e+01 1.627752e+01 1.788955e+01 1.948849e+01 2.661363e+01 2.916048e+01 3.134517e+01 3.308198e+01 3.429358e+01 3.492074e+01 3.493125e+01 3.432503e+01 3.313401e+01 3.141702e+01 2.925074e+01 2.671993e+01 1.960491e+01 1.799307e+01 1.636173e+01 1.472852e+01 1.310732e+01 1.150900e+01 9.941380e+00 8.408303e+00 6.907736e+00 5.429206e+00 3.950339e+00 2.433481e+00 8.334578e-01 3.730372e-01 1.412393e+00 2.679831e+00 3.960498e+00 5.288031e+00 6.673965e+00 8.121251e+00 9.629549e+00 1.119699e+01 1.282058e+01 1.449575e+01 1.621578e+01 1.797099e+01 2.866193e+01 3.192391e+01 3.490373e+01 3.749092e+01 3.956953e+01 4.103090e+01 4.178957e+01 4.179822e+01 4.105669e+01 3.961197e+01 3.754903e+01 3.497580e+01 3.200723e+01 2.875254e+01 1.801770e+01 1.623288e+01 1.447505e+01 1.275221e+01 1.106851e+01 9.423633e+00 7.811515e+00 6.217824e+00 4.615897e+00 2.953041e+00 1.099346e+00 2.403021e-01 1.048471e+00 2.160986e+00 3.399420e+00 4.717648e+00 6.101430e+00 7.552845e+00 9.074079e+00 1.066624e+01 1.232935e+01 1.406226e+01 1.586236e+01 1.772489e+01 1.964204e+01 2.574682e+01 2.976279e+01 3.371587e+01 3.751394e+01 4.103857e+01 4.414638e+01 4.667819e+01 4.847744e+01 4.941657e+01 4.942348e+01 4.849803e+01 4.671200e+01 4.419242e+01 4.109509e+01 3.757821e+01 3.378391e+01 2.982923e+01 2.580473e+01 1.965791e+01 1.770959e+01 1.580716e+01 1.395558e+01 1.215586e+01 1.040491e+01 8.694814e+00 7.011519e+00 5.332177e+00 3.624228e+00 1.852289e+00 4.262130e-01 5.146209e-01 1.592587e+00 2.773190e+00 4.050384e+00 5.410091e+00 6.847182e+00 8.361675e+00 9.955797e+00 1.163183e+01 1.339165e+01 1.523639e+01 1.716604e+01 1.917872e+01 2.982284e+01 3.436982e+01 3.892023e+01 4.337308e+01 4.758727e+01 5.137804e+01 5.452421e+01 5.679367e+01 5.798825e+01 5.799355e+01 5.680952e+01 5.455033e+01 5.141371e+01 4.763095e+01 4.342224e+01 3.897107e+01 3.441717e+01 2.986002e+01 1.913974e+01 1.708778e+01 1.510642e+01 1.319365e+01 1.134431e+01 9.550028e+00 7.798992e+00 6.076494e+00 4.367926e+00 2.673255e+00 9.634843e-01 7.304748e-01 2.021378e+00 3.290810e+00 4.619609e+00 6.026403e+00 7.515703e+00 9.090886e+00 1.075552e+01 1.251352e+01 1.436885e+01 1.632532e+01 1.838623e+01 2.883994e+01 3.382280e+01 3.896801e+01 4.421536e+01 4.946332e+01 5.455280e+01 5.925183e+01 6.325242e+01 6.619927e+01 6.776921e+01 6.777293e+01 6.621058e+01 6.327156e+01 5.927859e+01 5.458616e+01 4.950112e+01 4.425415e+01 3.900294e+01 3.384751e+01 2.884649e+01 1.829727e+01 1.618816e+01 1.416748e+01 1.222808e+01 1.036139e+01 8.557885e+00 6.808268e+00 5.105288e+00 3.444232e+00 1.803710e+00 4.751234e-01 2.561630e-01 1.189606e+00 2.439179e+00 3.740462e+00 5.109897e+00 6.559991e+00 8.098472e+00 9.730680e+00 1.146190e+01 1.329785e+01 1.524481e+01 1.730964e+01 1.949953e+01 2.690300e+01 3.213406e+01 3.765583e+01 4.345729e+01 4.950022e+01 5.569972e+01 6.189514e+01 6.781461e+01 7.303842e+01 7.700709e+01 7.914893e+01 7.915087e+01 7.701356e+01 7.305067e+01 6.783346e+01 6.192030e+01 5.572959e+01 4.953182e+01 4.348615e+01 3.767599e+01 3.213805e+01 2.688176e+01 1.941261e+01 1.718117e+01 1.505977e+01 1.303897e+01 1.110956e+01 9.263284e+00 7.493981e+00 5.799872e+00 4.186311e+00 2.683195e+00 1.348468e+00 3.550391e-01 5.066355e-01 1.594869e+00 2.810154e+00 4.121432e+00 5.518213e+00 7.005028e+00 8.587490e+00 1.027156e+01 1.206366e+01 1.397125e+01 1.600298e+01 1.816890e+01 2.946612e+01 3.513510e+01 4.120487e+01 4.769757e+01 5.461624e+01 6.192140e+01 6.948889e+01 7.704414e+01 7.705534e+01 6.950741e+01 6.194634e+01 5.464509e+01 4.772630e+01 4.122794e+01 3.514555e+01 2.945561e+01 1.806413e+01 1.585150e+01 1.375861e+01 1.177496e+01 9.892321e+00 8.105862e+00 6.415789e+00 4.831000e+00 3.372708e+00 2.079548e+00 9.848057e-01 2.212933e-01 6.545151e-01 1.858029e+00 3.094267e+00 4.417740e+00 5.836769e+00 7.354346e+00 8.975022e+00 1.070455e+01 1.255016e+01 1.452073e+01 1.662719e+01 1.888274e+01 2.603756e+01 3.165760e+01 3.773431e+01 4.432808e+01 5.150536e+01 5.933223e+01 6.785637e+01 7.705758e+01 8.980944e+01 8.981253e+01 8.981255e+01 8.980950e+01 7.707036e+01 6.787885e+01 5.936242e+01 5.153951e+01 4.436102e+01 3.775958e+01 3.166761e+01 2.602360e+01 1.881543e+01 1.652376e+01 1.436938e+01 1.233987e+01 1.042604e+01 8.622565e+00 6.929030e+00 5.351016e+00 3.901239e+00 2.595785e+00 1.449802e+00 4.587288e-01 1.875550e-01 9.486463e-01 2.059460e+00 3.285555e+00 4.618847e+00 6.056886e+00 7.600823e+00 9.253921e+00 1.102175e+01 1.291201e+01 1.493475e+01 1.710274e+01 1.943201e+01 2.750363e+01 3.339368e+01 3.981758e+01 4.686804e+01 5.466115e+01 6.334173e+01 7.308573e+01 8.981255e+01 8.981868e+01 8.982175e+01 8.982177e+01 8.981874e+01 8.981265e+01 7.310781e+01 6.337703e+01 5.470596e+01 4.691729e+01 3.986526e+01 3.343292e+01 2.752684e+01 1.941451e+01 1.705919e+01 1.485582e+01 1.278973e+01 1.085018e+01 9.030411e+00 7.327814e+00 5.744068e+00 4.284005e+00 2.952869e+00 1.744952e+00 6.059609e-01 3.097214e-01 1.099367e+00 2.149977e+00 3.371170e+00 4.715306e+00 6.171625e+00 7.738466e+00 9.418453e+00 1.121691e+01 1.314182e+01 1.520404e+01 1.741767e+01 1.980082e+01 2.851254e+01 3.459896e+01 4.127817e+01 4.867014e+01 5.693504e+01 6.629200e+01 7.705319e+01 8.980955e+01 8.981873e+01 8.982485e+01 8.982793e+01 8.982795e+01 8.982492e+01 8.981884e+01 8.980970e+01 7.707677e+01 6.633625e+01 5.699559e+01 4.874178e+01 4.135513e+01 3.467506e+01 2.858123e+01 1.984367e+01 1.744336e+01 1.520561e+01 1.311371e+01 1.115526e+01 9.321784e+00 7.608426e+00 6.013409e+00 4.537092e+00 3.180206e+00 1.944971e+00 8.515807e-01 1.500695e-01 1.887947e-01 9.591686e-01 2.087698e+00 3.337428e+00 4.701122e+00 6.176324e+00 7.763439e+00 9.464942e+00 1.128607e+01 1.323488e+01 1.532255e+01 1.756391e+01 1.997817e+01 2.902383e+01 3.521607e+01 4.203248e+01 4.960888e+01 5.813129e+01 6.786334e+01 7.919273e+01 8.981268e+01 8.982185e+01 8.982798e+01 8.983105e+01 8.983108e+01 8.982805e+01 8.982198e+01 8.981286e+01 7.922074e+01 6.792102e+01 5.821287e+01 4.970868e+01 4.214491e+01 3.533556e+01 2.914485e+01 2.008962e+01 1.766576e+01 1.541027e+01 1.330490e+01 1.133597e+01 9.493578e+00 7.771038e+00 6.164192e+00 4.670470e+00 3.287808e+00 2.016607e+00 8.799913e-01 1.521478e-01 6.703401e-01 1.908692e+00 3.191038e+00 4.575407e+00 6.069626e+00 7.674434e+00 9.392285e+00 1.122808e+01 1.318967e+01 1.528811e+01 1.753816e+01 1.995894e+01 2.901688e+01 3.521448e+01 4.203490e+01 4.961400e+01 5.813777e+01 6.786961e+01 7.919671e+01 8.981274e+01 8.982191e+01 8.982804e+01 8.983112e+01 8.983115e+01 8.982813e+01 8.982206e+01 8.981294e+01 7.923493e+01 6.794654e+01 5.824604e+01 4.974755e+01 4.218835e+01 3.538292e+01 2.919574e+01 2.014448e+01 1.772073e+01 1.546555e+01 1.336029e+01 1.139067e+01 9.545947e+00 7.818234e+00 6.201913e+00 4.692790e+00 3.286253e+00 1.969447e+00 6.869888e-01 5.241130e-01 1.655773e+00 2.936397e+00 4.339847e+00 5.852545e+00 7.472859e+00 9.202161e+00 1.104483e+01 1.300820e+01 1.510279e+01 1.734260e+01 1.974551e+01 2.849319e+01 3.459555e+01 4.128669e+01 4.868683e+01 5.695603e+01 6.631284e+01 7.706806e+01 8.980973e+01 8.981892e+01 8.982506e+01 8.982814e+01 8.982818e+01 8.982516e+01 8.981909e+01 8.980996e+01 7.712600e+01 6.641617e+01 5.709697e+01 4.885945e+01 4.148608e+01 3.481749e+01 2.873410e+01 2.000776e+01 1.760805e+01 1.537161e+01 1.328061e+01 1.132097e+01 9.481688e+00 7.754290e+00 6.132450e+00 4.611759e+00 3.189969e+00 1.863827e+00 6.137351e-01 2.659084e-01 1.237701e+00 2.566137e+00 3.995666e+00 5.528460e+00 7.162734e+00 8.899177e+00 1.074140e+01 1.269608e+01 1.477289e+01 1.698467e+01 1.934749e+01 2.747630e+01 3.339239e+01 3.983592e+01 4.690009e+01 5.470097e+01 6.338273e+01 7.311964e+01 8.981288e+01 8.981902e+01 8.982211e+01 8.982215e+01 8.981913e+01 8.981307e+01 7.320824e+01 6.351995e+01 5.488040e+01 4.711664e+01 4.008544e+01 3.367146e+01 2.778227e+01 1.968628e+01 1.733287e+01 1.513286e+01 1.307008e+01 1.113132e+01 9.305887e+00 7.585129e+00 5.962133e+00 4.432237e+00 2.995466e+00 1.674575e+00 5.216281e-01 7.274496e-01 2.094497e+00 3.548093e+00 5.103299e+00 6.750969e+00 8.490908e+00 1.032604e+01 1.226233e+01 1.430857e+01 1.647628e+01 1.877945e+01 2.600944e+01 3.166477e+01 3.776833e+01 4.438133e+01 5.157045e+01 5.940138e+01 6.792048e+01 7.710501e+01 8.980992e+01 8.981303e+01 8.981308e+01 8.981005e+01 7.717870e+01 6.804812e+01 5.957878e+01 5.179337e+01 4.464595e+01 3.807138e+01 3.200363e+01 2.638232e+01 1.919229e+01 1.690489e+01 1.475739e+01 1.273592e+01 1.082869e+01 9.025720e+00 7.318438e+00 5.699510e+00 4.161599e+00 2.696893e+00 1.299005e+00 2.739929e-01 3.350968e-01 1.488801e+00 3.003648e+00 4.586387e+00 6.247484e+00 7.987922e+00 9.810021e+00 1.171907e+01 1.372321e+01 1.583281e+01 1.805990e+01 2.949012e+01 3.519234e+01 4.128657e+01 4.779557e+01 5.472243e+01 6.202709e+01 6.958421e+01 7.711787e+01 7.718671e+01 6.970334e+01 6.219819e+01 5.494429e+01 4.806582e+01 4.160255e+01 3.555156e+01 2.989061e+01 1.854247e+01 1.633740e+01 1.425625e+01 1.228781e+01 1.042206e+01 8.650023e+00 6.963604e+00 5.355272e+00 3.818241e+00 2.337502e+00 8.385261e-01 8.416093e-01 2.389160e+00 3.990188e+00 5.664964e+00 7.403843e+00 9.207527e+00 1.108109e+01 1.303266e+01 1.507204e+01 1.720974e+01 1.945632e+01 2.695374e+01 3.222322e+01 3.777404e+01 4.359622e+01 4.965205e+01 5.585676e+01 6.204971e+01 6.795944e+01 7.316812e+01 7.712121e+01 7.925529e+01 7.926545e+01 7.715599e+01 7.323737e+01 6.807273e+01 6.221312e+01 5.607282e+01 4.992087e+01 4.391653e+01 3.814392e+01 3.264065e+01 2.741705e+01 1.998210e+01 1.775643e+01 1.564621e+01 1.364262e+01 1.173718e+01 9.921832e+00 8.188876e+00 6.530646e+00 4.939876e+00 3.411348e+00 1.959600e+00 6.282049e-01 3.798508e-01 1.666574e+00 3.325079e+00 5.019329e+00 6.755738e+00 8.535648e+00 1.036537e+01 1.225440e+01 1.421297e+01 1.625065e+01 1.837569e+01 2.897026e+01 3.398576e+01 3.915561e+01 4.442047e+01 4.967945e+01 5.477411e+01 5.947365e+01 6.347224e+01 6.641821e+01 6.799308e+01 6.801175e+01 6.647622e+01 6.357445e+01 5.962541e+01 5.497947e+01 4.994053e+01 4.473766e+01 3.952799e+01 3.441164e+01 2.944764e+01 1.895577e+01 1.685499e+01 1.484847e+01 1.293089e+01 1.109650e+01 9.339265e+00 7.652912e+00 6.030665e+00 4.463519e+00 2.939205e+00 1.445013e+00 3.134064e-01 9.300314e-01 2.622247e+00 4.331504e+00 6.065183e+00 7.814469e+00 9.590415e+00 1.140648e+01 1.327457e+01 1.520390e+01 1.720087e+01 1.926875e+01 3.003848e+01 3.461319e+01 3.918515e+01 4.365420e+01 4.788017e+01 5.167962e+01 5.483325e+01 5.711155e+01 5.831918e+01 5.834415e+01 5.718748e+01 5.496273e+01 5.186571e+01 4.812542e+01 4.396002e+01 3.955167e+01 3.503941e+01 3.052246e+01 1.987654e+01 1.783059e+01 1.585915e+01 1.396169e+01 1.213596e+01 1.037864e+01 8.685703e+00 7.052695e+00 5.474468e+00 3.944407e+00 2.443620e+00 8.869411e-01 4.193828e-01 1.842246e+00 3.628839e+00 5.361077e+00 7.066966e+00 8.774938e+00 1.050610e+01 1.227445e+01 1.408902e+01 1.595455e+01 1.787176e+01 1.983705e+01 2.602227e+01 3.006810e+01 3.404595e+01 3.786453e+01 4.140628e+01 4.452904e+01 4.707516e+01 4.888994e+01 4.984771e+01 4.987788e+01 4.898101e+01 4.722865e+01 4.474683e+01 4.168997e+01 3.821495e+01 3.446288e+01 3.055013e+01 2.656690e+01 2.046715e+01 1.852495e+01 1.663049e+01 1.478906e+01 1.300300e+01 1.127251e+01 9.596320e+00 7.972178e+00 6.397361e+00 4.869519e+00 3.387800e+00 1.965071e+00 6.360457e-01 1.109740e+00 2.989726e+00 4.683322e+00 6.315489e+00 7.935274e+00 9.567681e+00 1.122743e+01 1.292250e+01 1.465585e+01 1.642592e+01 1.822659e+01 2.906148e+01 3.234738e+01 3.534850e+01 3.795535e+01 4.005322e+01 4.153487e+01 4.231618e+01 4.235091e+01 4.163946e+01 4.022874e+01 3.820315e+01 3.566976e+01 3.274263e+01 2.953021e+01 1.890015e+01 1.712498e+01 1.537687e+01 1.366324e+01 1.198848e+01 1.035461e+01 8.761882e+00 7.209308e+00 5.695411e+00 4.219116e+00 2.780998e+00 1.379749e+00 3.066058e-01 8.546889e-01 2.497780e+00 4.057019e+00 5.573592e+00 7.081282e+00 8.600896e+00 1.014425e+01 1.171697e+01 1.331970e+01 1.494864e+01 1.659565e+01 1.824797e+01 1.988783e+01 2.711264e+01 2.968399e+01 3.189180e+01 3.365139e+01 3.488659e+01 3.553928e+01 3.557815e+01 3.500357e+01 3.384749e+01 3.216835e+01 3.004222e+01 2.755318e+01 2.053226e+01 1.893397e+01 1.731666e+01 1.569730e+01 1.408825e+01 1.249817e+01 1.093278e+01 9.395363e+00 7.887184e+00 6.407868e+00 4.956060e+00 3.530747e+00 2.138384e+00 7.601341e-01 7.023805e-01 2.096255e+00 3.470655e+00 4.838240e+00 6.213992e+00 7.609352e+00 9.030909e+00 1.048070e+01 1.195660e+01 1.345254e+01 1.495856e+01 1.646075e+01 1.794122e+01 1.937830e+01 2.627778e+01 2.777701e+01 2.882540e+01 2.938165e+01 2.942428e+01 2.895373e+01 2.799229e+01 2.658176e+01 2.000320e+01 1.862468e+01 1.719512e+01 1.573447e+01 1.425871e+01 1.278017e+01 1.130802e+01 9.848779e+00 8.406601e+00 6.983416e+00 5.578977e+00 4.190779e+00 2.813856e+00 1.434232e+00 3.340264e-01 5.683440e-01 1.716741e+00 2.891428e+00 4.093947e+00 5.326264e+00 6.590857e+00 7.888644e+00 9.217670e+00 1.057282e+01 1.194571e+01 1.332464e+01 1.469459e+01 1.603745e+01 1.733228e+01 1.855585e+01 1.968303e+01 2.018299e+01 1.913779e+01 1.799145e+01 1.676749e+01 1.548670e+01 1.416677e+01 1.282237e+01 1.146524e+01 1.010458e+01 8.747352e+00 7.398462e+00 6.060575e+00 4.733406e+00 3.413316e+00 2.098529e+00 7.578437e-01 4.184703e-01 1.309679e+00 2.284336e+00 3.320172e+00 4.405915e+00 5.538665e+00 6.714607e+00 7.927975e+00 9.170738e+00 1.043228e+01 1.169916e+01 1.295508e+01 1.418131e+01 1.535725e+01 1.646116e+01 1.747082e+01 1.836417e+01 1.912003e+01 1.971875e+01 2.014376e+01 2.038292e+01 2.042937e+01 2.028329e+01 1.995177e+01 1.944700e+01 1.878539e+01 1.798623e+01 1.706990e+01 1.605687e+01 1.496663e+01 1.381687e+01 1.262307e+01 1.139833e+01 1.015348e+01 8.897375e+00 7.637213e+00 6.378855e+00 5.126370e+00 3.880477e+00 2.633784e+00 1.362907e+00 3.238584e-01 1.912014e-01 8.108310e-01 1.621332e+00 2.497113e+00 3.438200e+00 4.442995e+00 5.502795e+00 6.608430e+00 7.749397e+00 8.913051e+00 1.008421e+01 1.124495e+01 1.237527e+01 1.345415e+01 1.446074e+01 1.537508e+01 1.617853e+01 1.685407e+01 1.738672e+01 1.776431e+01 1.797820e+01 1.802407e+01 1.790247e+01 1.761881e+01 1.718264e+01 1.660685e+01 1.590666e+01 1.509853e+01 1.419920e+01 1.322491e+01 1.219069e+01 1.110993e+01 9.994071e+00 8.852732e+00 7.693979e+00 6.525065e+00 5.352815e+00 4.184415e+00 3.025605e+00 1.877333e+00 6.877816e-01 2.624463e-01 8.906198e-01 1.608905e+00 2.405656e+00 3.292489e+00 4.244704e+00 5.253292e+00 6.304944e+00 7.385830e+00 8.479282e+00 9.565101e+00 1.062070e+01 1.162351e+01 1.255279e+01 1.339051e+01 1.412114e+01 1.473144e+01 1.521035e+01 1.554926e+01 1.574235e+01 1.578707e+01 1.568441e+01 1.543890e+01 1.505828e+01 1.455291e+01 1.393509e+01 1.321826e+01 1.241628e+01 1.154282e+01 1.061073e+01 9.631540e+00 8.615048e+00 7.569213e+00 6.500779e+00 5.416120e+00 4.323222e+00 3.231543e+00 2.158110e+00 1.119160e+00 2.791653e-01 2.331488e-01 6.072414e-01 1.283112e+00 2.079691e+00 2.929369e+00 3.855187e+00 4.83