<VTKFile type="UnstructuredGrid" version="0.1" byte_order="LittleEndian">
   <UnstructuredGrid>
      <Piece  NumberOfPoints="3281"  NumberOfCells="3036">
         <Points>
            <DataArray type="Float32" NumberOfComponents="3" format="ascii">
-5.468750e-01 -2.343750e+00 0.000000e+00
-5.468750e-01 -2.421875e+00 0.000000e+00
-4.687500e-01 -2.421875e+00 0.000000e+00
-4.687500e-01 -2.343750e+00 0.000000e+00
-3.906250e-01 -2.421875e+00 0.000000e+00
-3.906250e-01 -2.343750e+00 0.000000e+00
-3.125000e-01 -2.421875e+00 0.000000e+00
-3.125000e-01 -2.343750e+00 0.000000e+00
-2.343750e-01 -2.421875e+00 0.000000e+00
-2.343750e-01 -2.343750e+00 0.000000e+00
-1.562500e-01 -2.421875e+00 0.000000e+00
-1.562500e-01 -2.343750e+00 0.000000e+00
-7.812500e-01 -2.265625e+00 0.000000e+00
-7.812500e-01 -2.343750e+00 0.000000e+00
-7.031250e-01 -2.343750e+00 0.000000e+00
-7.031250e-01 -2.265625e+00 0.000000e+00
-6.250000e-01 -2.343750e+00 0.000000e+00
-6.250000e-01 -2.265625e+00 0.000000e+00
-5.468750e-01 -2.265625e+00 0.000000e+00
-4.687500e-01 -2.265625e+00 0.000000e+00
-3.906250e-01 -2.265625e+00 0.000000e+00
-3.125000e-01 -2.265625e+00 0.000000e+00
-2.343750e-01 -2.265625e+00 0.000000e+00
-1.562500e-01 -2.265625e+00 0.000000e+00
-7.812500e-02 -2.343750e+00 0.000000e+00
-7.812500e-02 -2.265625e+00 0.000000e+00
0.000000e+00 -2.343750e+00 0.000000e+00
0.000000e+00 -2.265625e+00 0.000000e+00
3.125000e-01 -2.265625e+00 0.000000e+00
3.125000e-01 -2.343750e+00 0.000000e+00
3.906250e-01 -2.343750e+00 0.000000e+00
3.906250e-01 -2.265625e+00 0.000000e+00
4.687500e-01 -2.343750e+00 0.000000e+00
4.687500e-01 -2.265625e+00 0.000000e+00
5.468750e-01 -2.343750e+00 0.000000e+00
5.468750e-01 -2.265625e+00 0.000000e+00
6.250000e-01 -2.343750e+00 0.000000e+00
6.250000e-01 -2.265625e+00 0.000000e+00
7.031250e-01 -2.343750e+00 0.000000e+00
7.031250e-01 -2.265625e+00 0.000000e+00
7.812500e-01 -2.343750e+00 0.000000e+00
7.812500e-01 -2.265625e+00 0.000000e+00
-9.375000e-01 -2.187500e+00 0.000000e+00
-9.375000e-01 -2.265625e+00 0.000000e+00
-8.593750e-01 -2.265625e+00 0.000000e+00
-8.593750e-01 -2.187500e+00 0.000000e+00
-7.812500e-01 -2.187500e+00 0.000000e+00
-7.031250e-01 -2.187500e+00 0.000000e+00
-6.250000e-01 -2.187500e+00 0.000000e+00
-5.468750e-01 -2.187500e+00 0.000000e+00
-4.687500e-01 -2.187500e+00 0.000000e+00
-3.906250e-01 -2.187500e+00 0.000000e+00
-3.125000e-01 -2.187500e+00 0.000000e+00
-2.343750e-01 -2.187500e+00 0.000000e+00
-1.562500e-01 -2.187500e+00 0.000000e+00
-7.812500e-02 -2.187500e+00 0.000000e+00
0.000000e+00 -2.187500e+00 0.000000e+00
7.812500e-02 -2.265625e+00 0.000000e+00
7.812500e-02 -2.187500e+00 0.000000e+00
1.562500e-01 -2.265625e+00 0.000000e+00
1.562500e-01 -2.187500e+00 0.000000e+00
2.343750e-01 -2.265625e+00 0.000000e+00
2.343750e-01 -2.187500e+00 0.000000e+00
3.125000e-01 -2.187500e+00 0.000000e+00
3.906250e-01 -2.187500e+00 0.000000e+00
4.687500e-01 -2.187500e+00 0.000000e+00
5.468750e-01 -2.187500e+00 0.000000e+00
6.250000e-01 -2.187500e+00 0.000000e+00
7.031250e-01 -2.187500e+00 0.000000e+00
7.812500e-01 -2.187500e+00 0.000000e+00
8.593750e-01 -2.265625e+00 0.000000e+00
8.593750e-01 -2.187500e+00 0.000000e+00
-1.093750e+00 -2.109375e+00 0.000000e+00
-1.093750e+00 -2.187500e+00 0.000000e+00
-1.015625e+00 -2.187500e+00 0.000000e+00
-1.015625e+00 -2.109375e+00 0.000000e+00
-9.375000e-01 -2.109375e+00 0.000000e+00
-8.593750e-01 -2.109375e+00 0.000000e+00
-7.812500e-01 -2.109375e+00 0.000000e+00
-7.031250e-01 -2.109375e+00 0.000000e+00
-6.250000e-01 -2.109375e+00 0.000000e+00
-5.468750e-01 -2.109375e+00 0.000000e+00
-4.687500e-01 -2.109375e+00 0.000000e+00
-3.906250e-01 -2.109375e+00 0.000000e+00
-3.125000e-01 -2.109375e+00 0.000000e+00
-2.343750e-01 -2.109375e+00 0.000000e+00
-1.562500e-01 -2.109375e+00 0.000000e+00
-7.812500e-02 -2.109375e+00 0.000000e+00
0.000000e+00 -2.109375e+00 0.000000e+00
7.812500e-02 -2.109375e+00 0.000000e+00
1.562500e-01 -2.109375e+00 0.000000e+00
2.343750e-01 -2.109375e+00 0.000000e+00
3.125000e-01 -2.109375e+00 0.000000e+00
3.906250e-01 -2.109375e+00 0.000000e+00
4.687500e-01 -2.109375e+00 0.000000e+00
5.468750e-01 -2.109375e+00 0.000000e+00
6.250000e-01 -2.109375e+00 0.000000e+00
7.031250e-01 -2.109375e+00 0.000000e+00
7.812500e-01 -2.109375e+00 0.000000e+00
8.593750e-01 -2.109375e+00 0.000000e+00
9.375000e-01 -2.187500e+00 0.000000e+00
9.375000e-01 -2.109375e+00 0.000000e+00
-1.250000e+00 -2.031250e+00 0.000000e+00
-1.250000e+00 -2.109375e+00 0.000000e+00
-1.171875e+00 -2.109375e+00 0.000000e+00
-1.171875e+00 -2.031250e+00 0.000000e+00
-1.093750e+00 -2.031250e+00 0.000000e+00
-1.015625e+00 -2.031250e+00 0.000000e+00
-9.375000e-01 -2.031250e+00 0.000000e+00
-8.593750e-01 -2.031250e+00 0.000000e+00
-7.812500e-01 -2.031250e+00 0.000000e+00
-7.031250e-01 -2.031250e+00 0.000000e+00
-6.250000e-01 -2.031250e+00 0.000000e+00
-5.468750e-01 -2.031250e+00 0.000000e+00
-4.687500e-01 -2.031250e+00 0.000000e+00
-3.906250e-01 -2.031250e+00 0.000000e+00
-3.125000e-01 -2.031250e+00 0.000000e+00
-2.343750e-01 -2.031250e+00 0.000000e+00
-1.562500e-01 -2.031250e+00 0.000000e+00
-7.812500e-02 -2.031250e+00 0.000000e+00
0.000000e+00 -2.031250e+00 0.000000e+00
7.812500e-02 -2.031250e+00 0.000000e+00
1.562500e-01 -2.031250e+00 0.000000e+00
2.343750e-01 -2.031250e+00 0.000000e+00
3.125000e-01 -2.031250e+00 0.000000e+00
3.906250e-01 -2.031250e+00 0.000000e+00
4.687500e-01 -2.031250e+00 0.000000e+00
5.468750e-01 -2.031250e+00 0.000000e+00
6.250000e-01 -2.031250e+00 0.000000e+00
7.031250e-01 -2.031250e+00 0.000000e+00
7.812500e-01 -2.031250e+00 0.000000e+00
8.593750e-01 -2.031250e+00 0.000000e+00
9.375000e-01 -2.031250e+00 0.000000e+00
1.015625e+00 -2.109375e+00 0.000000e+00
1.015625e+00 -2.031250e+00 0.000000e+00
-1.328125e+00 -1.953125e+00 0.000000e+00
-1.328125e+00 -2.031250e+00 0.000000e+00
-1.250000e+00 -1.953125e+00 0.000000e+00
-1.171875e+00 -1.953125e+00 0.000000e+00
-1.093750e+00 -1.953125e+00 0.000000e+00
-1.015625e+00 -1.953125e+00 0.000000e+00
-9.375000e-01 -1.953125e+00 0.000000e+00
-8.593750e-01 -1.953125e+00 0.000000e+00
-7.812500e-01 -1.953125e+00 0.000000e+00
-7.031250e-01 -1.953125e+00 0.000000e+00
-6.250000e-01 -1.953125e+00 0.000000e+00
-5.468750e-01 -1.953125e+00 0.000000e+00
-4.687500e-01 -1.953125e+00 0.000000e+00
-3.906250e-01 -1.953125e+00 0.000000e+00
-3.125000e-01 -1.953125e+00 0.000000e+00
-2.343750e-01 -1.953125e+00 0.000000e+00
-1.562500e-01 -1.953125e+00 0.000000e+00
-7.812500e-02 -1.953125e+00 0.000000e+00
0.000000e+00 -1.953125e+00 0.000000e+00
7.812500e-02 -1.953125e+00 0.000000e+00
1.562500e-01 -1.953125e+00 0.000000e+00
2.343750e-01 -1.953125e+00 0.000000e+00
3.125000e-01 -1.953125e+00 0.000000e+00
3.906250e-01 -1.953125e+00 0.000000e+00
4.687500e-01 -1.953125e+00 0.000000e+00
5.468750e-01 -1.953125e+00 0.000000e+00
6.250000e-01 -1.953125e+00 0.000000e+00
7.031250e-01 -1.953125e+00 0.000000e+00
7.812500e-01 -1.953125e+00 0.000000e+00
8.593750e-01 -1.953125e+00 0.000000e+00
9.375000e-01 -1.953125e+00 0.000000e+00
1.015625e+00 -1.953125e+00 0.000000e+00
1.093750e+00 -2.031250e+00 0.000000e+00
1.093750e+00 -1.953125e+00 0.000000e+00
1.171875e+00 -2.031250e+00 0.000000e+00
1.171875e+00 -1.953125e+00 0.000000e+00
1.250000e+00 -2.031250e+00 0.000000e+00
1.250000e+00 -1.953125e+00 0.000000e+00
-1.484375e+00 -1.875000e+00 0.000000e+00
-1.484375e+00 -1.953125e+00 0.000000e+00
-1.406250e+00 -1.953125e+00 0.000000e+00
-1.406250e+00 -1.875000e+00 0.000000e+00
-1.328125e+00 -1.875000e+00 0.000000e+00
-1.250000e+00 -1.875000e+00 0.000000e+00
-1.171875e+00 -1.875000e+00 0.000000e+00
-1.093750e+00 -1.875000e+00 0.000000e+00
-1.015625e+00 -1.875000e+00 0.000000e+00
-9.375000e-01 -1.875000e+00 0.000000e+00
-8.593750e-01 -1.875000e+00 0.000000e+00
-7.812500e-01 -1.875000e+00 0.000000e+00
-7.031250e-01 -1.875000e+00 0.000000e+00
-6.250000e-01 -1.875000e+00 0.000000e+00
-5.468750e-01 -1.875000e+00 0.000000e+00
-4.687500e-01 -1.875000e+00 0.000000e+00
-3.906250e-01 -1.875000e+00 0.000000e+00
-3.125000e-01 -1.875000e+00 0.000000e+00
-2.343750e-01 -1.875000e+00 0.000000e+00
-1.562500e-01 -1.875000e+00 0.000000e+00
-7.812500e-02 -1.875000e+00 0.000000e+00
0.000000e+00 -1.875000e+00 0.000000e+00
7.812500e-02 -1.875000e+00 0.000000e+00
1.562500e-01 -1.875000e+00 0.000000e+00
2.343750e-01 -1.875000e+00 0.000000e+00
3.125000e-01 -1.875000e+00 0.000000e+00
3.906250e-01 -1.875000e+00 0.000000e+00
4.687500e-01 -1.875000e+00 0.000000e+00
5.468750e-01 -1.875000e+00 0.000000e+00
6.250000e-01 -1.875000e+00 0.000000e+00
7.031250e-01 -1.875000e+00 0.000000e+00
7.812500e-01 -1.875000e+00 0.000000e+00
8.593750e-01 -1.875000e+00 0.000000e+00
9.375000e-01 -1.875000e+00 0.000000e+00
1.015625e+00 -1.875000e+00 0.000000e+00
1.093750e+00 -1.875000e+00 0.000000e+00
1.171875e+00 -1.875000e+00 0.000000e+00
1.250000e+00 -1.875000e+00 0.000000e+00
1.328125e+00 -1.953125e+00 0.000000e+00
1.328125e+00 -1.875000e+00 0.000000e+00
1.406250e+00 -1.953125e+00 0.000000e+00
1.406250e+00 -1.875000e+00 0.000000e+00
1.484375e+00 -1.953125e+00 0.000000e+00
1.484375e+00 -1.875000e+00 0.000000e+00
-1.562500e+00 -1.796875e+00 0.000000e+00
-1.562500e+00 -1.875000e+00 0.000000e+00
-1.484375e+00 -1.796875e+00 0.000000e+00
-1.406250e+00 -1.796875e+00 0.000000e+00
-1.328125e+00 -1.796875e+00 0.000000e+00
-1.250000e+00 -1.796875e+00 0.000000e+00
-1.171875e+00 -1.796875e+00 0.000000e+00
-1.093750e+00 -1.796875e+00 0.000000e+00
-1.015625e+00 -1.796875e+00 0.000000e+00
-9.375000e-01 -1.796875e+00 0.000000e+00
-8.593750e-01 -1.796875e+00 0.000000e+00
-7.812500e-01 -1.796875e+00 0.000000e+00
-7.031250e-01 -1.796875e+00 0.000000e+00
-6.250000e-01 -1.796875e+00 0.000000e+00
-5.468750e-01 -1.796875e+00 0.000000e+00
-4.687500e-01 -1.796875e+00 0.000000e+00
-3.906250e-01 -1.796875e+00 0.000000e+00
-3.125000e-01 -1.796875e+00 0.000000e+00
-2.343750e-01 -1.796875e+00 0.000000e+00
-1.562500e-01 -1.796875e+00 0.000000e+00
-7.812500e-02 -1.796875e+00 0.000000e+00
0.000000e+00 -1.796875e+00 0.000000e+00
7.812500e-02 -1.796875e+00 0.000000e+00
[...]
         <CellData Scalars="count">
            <DataArray type="Float64" Name="solution" format="ascii">
1.846798e-01 3.446658e-01 3.820208e-01 3.520747e-01 1.912953e-01 2.100998e-01 4.266061e-01 5.734493e-01 8.845752e-01 1.122022e+00 1.199993e+00 1.151235e+00 9.254120e-01 5.866716e-01 2.879993e-01 2.261294e-01 4.022117e-01 4.262154e-01 3.961792e-01 3.216461e-01 1.571027e-01 2.429218e-01 5.423960e-01 9.589775e-01 1.331155e+00 1.603809e+00 1.853030e+00 2.043215e+00 2.133287e+00 2.110502e+00 1.969536e+00 1.723460e+00 1.338827e+00 9.143522e-01 8.090186e-01 7.855672e-01 8.313952e-01 1.120469e+00 1.313115e+00 1.322938e+00 1.226647e+00 1.033462e+00 7.005243e-01 2.499112e-01 2.504874e-01 5.739546e-01 1.057651e+00 1.540823e+00 1.956594e+00 2.324441e+00 2.632009e+00 2.883835e+00 3.071493e+00 3.177748e+00 3.193417e+00 3.117297e+00 2.957283e+00 2.732786e+00 2.510706e+00 2.375016e+00 2.313074e+00 2.313100e+00 2.366693e+00 2.387214e+00 2.316250e+00 2.146712e+00 1.873523e+00 1.479785e+00 9.368244e-01 3.175101e-01 2.339193e-01 5.593212e-01 1.071352e+00 1.605951e+00 2.099626e+00 2.572175e+00 3.002384e+00 3.383716e+00 3.710341e+00 3.978685e+00 4.182467e+00 4.314272e+00 4.369549e+00 4.349850e+00 4.264452e+00 4.133623e+00 3.992726e+00 3.873017e+00 3.783563e+00 3.717837e+00 3.656288e+00 3.563698e+00 3.406490e+00 3.167373e+00 2.835282e+00 2.397966e+00 1.844870e+00 1.152335e+00 3.941312e-01 3.278133e-01 9.617091e-01 1.548301e+00 2.099700e+00 2.643215e+00 3.161643e+00 3.649137e+00 4.097014e+00 4.498050e+00 4.846556e+00 5.137522e+00 5.366176e+00 5.528252e+00 5.622001e+00 5.649829e+00 5.619683e+00 5.545868e+00 5.446890e+00 5.339076e+00 5.229003e+00 5.113176e+00 4.979164e+00 4.807639e+00 4.579599e+00 4.280809e+00 3.901495e+00 3.434665e+00 2.874724e+00 2.221360e+00 1.462369e+00 7.998176e-01 5.345529e-01 2.482296e-01 2.337829e-01 5.837426e-01 1.199744e+00 1.900660e+00 2.535579e+00 3.134554e+00 3.708165e+00 4.253843e+00 4.766095e+00 5.238621e+00 5.665179e+00 6.040191e+00 6.358802e+00 6.616831e+00 6.811303e+00 6.941286e+00 7.008860e+00 7.019659e+00 6.982607e+00 6.908304e+00 6.805581e+00 6.678614e+00 6.525617e+00 6.339380e+00 6.109288e+00 5.824179e+00 5.475039e+00 5.055895e+00 4.564004e+00 4.001464e+00 3.377616e+00 2.725985e+00 2.124220e+00 1.618110e+00 1.089584e+00 5.933551e-01 3.691292e-01 1.539067e-01 3.002723e-01 9.309262e-01 1.568762e+00 2.219336e+00 2.895311e+00 3.557060e+00 4.192530e+00 4.800856e+00 5.379200e+00 5.922871e+00 6.426333e+00 6.883940e+00 7.290358e+00 7.640825e+00 7.931403e+00 8.159342e+00 8.323598e+00 8.425271e+00 8.467766e+00 8.456396e+00 8.397205e+00 8.295323e+00 8.153343e+00 7.970610e+00 7.743465e+00 7.466318e+00 7.133320e+00 6.739847e+00 6.283594e+00 5.765555e+00 5.191262e+00 4.574024e+00 3.937650e+00 3.314991e+00 2.718161e+00 2.137011e+00 1.590675e+00 1.103666e+00 6.109873e-01 1.588254e-01 3.213034e-01 1.033833e+00 1.787791e+00 2.502410e+00 3.208608e+00 3.912857e+00 4.605233e+00 5.277128e+00 5.923239e+00 6.539122e+00 7.119828e+00 7.659959e+00 8.153993e+00 8.596601e+00 8.982935e+00 9.308894e+00 9.571435e+00 9.768890e+00 9.901195e+00 9.969897e+00 9.977823e+00 9.928373e+00 9.824582e+00 9.668290e+00 9.459699e+00 9.197488e+00 8.879436e+00 8.503331e+00 8.067942e+00 7.573882e+00 7.024393e+00 6.426331e+00 5.790927e+00 5.133961e+00 4.471029e+00 3.811158e+00 3.155121e+00 2.504318e+00 1.847269e+00 1.152503e+00 3.972536e-01 3.285241e-01 1.074222e+00 1.888051e+00 2.673330e+00 3.441593e+00 4.197140e+00 4.942700e+00 5.674719e+00 6.387527e+00 7.075740e+00 7.734138e+00 8.357341e+00 8.939718e+00 9.475549e+00 9.959244e+00 1.038560e+01 1.075003e+01 1.104889e+01 1.127961e+01 1.144095e+01 1.153290e+01 1.155657e+01 1.151366e+01 1.140606e+01 1.123527e+01 1.100224e+01 1.070736e+01 1.035077e+01 9.932933e+00 9.455153e+00 8.920166e+00 8.332625e+00 7.699444e+00 7.029869e+00 6.334429e+00 5.622769e+00 4.900361e+00 4.167570e+00 3.417573e+00 2.631066e+00 1.761213e+00 6.921391e-01 3.270006e-01 1.082474e+00 1.925425e+00 2.756154e+00 3.579543e+00 4.392031e+00 5.194470e+00 5.985929e+00 6.763473e+00 7.522568e+00 8.258013e+00 8.964306e+00 9.635660e+00 1.026605e+01 1.084930e+01 1.137934e+01 1.185032e+01 1.225695e+01 1.259469e+01 1.285994e+01 1.305026e+01 1.316432e+01 1.320190e+01 1.316360e+01 1.305060e+01 1.286439e+01 1.260660e+01 1.227897e+01 1.188351e+01 1.142271e+01 1.089989e+01 1.031940e+01 9.686884e+00 9.009267e+00 8.294455e+00 7.550515e+00 6.784166e+00 5.999213e+00 5.194838e+00 4.363921e+00 3.488621e+00 2.535994e+00 1.447514e+00 4.248088e-01 3.168336e-01 1.064239e+00 1.916433e+00 2.772919e+00 3.635293e+00 4.496058e+00 5.352578e+00 6.202298e+00 7.042804e+00 7.870601e+00 8.681208e+00 9.469391e+00 1.022937e+01 1.095493e+01 1.163951e+01 1.227633e+01 1.285856e+01 1.337952e+01 1.383293e+01 1.421315e+01 1.451541e+01 1.473599e+01 1.487237e+01 1.492320e+01 1.488827e+01 1.476837e+01 1.456511e+01 1.428084e+01 1.391851e+01 1.348171e+01 1.297471e+01 1.240250e+01 1.177089e+01 1.108643e+01 1.035631e+01 9.587983e+00 8.788465e+00 7.963478e+00 7.116369e+00 6.247185e+00 5.351579e+00 4.420625e+00 3.441909e+00 2.416845e+00 1.363481e+00 4.189196e-01 2.932935e-01 1.014554e+00 1.861544e+00 2.730236e+00 3.618096e+00 4.515390e+00 5.417380e+00 6.319744e+00 7.219188e+00 8.112207e+00 8.994795e+00 9.862189e+00 1.070890e+01 1.152879e+01 1.231513e+01 1.306072e+01 1.375798e+01 1.439912e+01 1.497638e+01 1.548225e+01 1.590975e+01 1.625274e+01 1.650614e+01 1.666616e+01 1.673043e+01 1.669807e+01 1.656961e+01 1.634696e+01 1.603323e+01 1.563262e+01 1.515024e+01 1.459204e+01 1.396466e+01 1.327533e+01 1.253168e+01 1.174152e+01 1.091247e+01 1.005150e+01 9.164334e+00 8.254921e+00 7.325001e+00 6.374156e+00 5.400582e+00 4.404756e+00 3.394090e+00 2.390667e+00 1.406883e+00 6.345612e-01 2.437497e-01 2.262208e-01 9.047209e-01 1.745546e+00 2.622643e+00 3.528520e+00 4.453187e+00 5.391420e+00 6.338280e+00 7.289869e+00 8.242383e+00 9.191916e+00 1.013406e+01 1.106374e+01 1.197514e+01 1.286167e+01 1.371603e+01 1.453023e+01 1.529574e+01 1.600361e+01 1.664472e+01 1.721007e+01 1.769106e+01 1.807989e+01 1.836991e+01 1.855594e+01 1.863455e+01 1.860417e+01 1.846524e+01 1.822006e+01 1.787267e+01 1.742863e+01 1.689471e+01 1.627864e+01 1.558884e+01 1.483412e+01 1.402342e+01 1.316551e+01 1.226869e+01 1.134043e+01 1.038707e+01 9.413571e+00 8.423522e+00 7.419535e+00 6.404510e+00 5.383710e+00 4.368435e+00 3.377701e+00 2.448131e+00 1.639102e+00 9.454451e-01 3.980517e-01 1.233769e-01 5.615661e-01 1.515644e+00 2.429737e+00 3.358532e+00 4.307420e+00 5.275274e+00 6.258778e+00 7.254555e+00 8.259017e+00 9.268482e+00 1.027890e+01 1.128566e+01 1.228345e+01 1.326612e+01 1.422662e+01 1.515699e+01 1.604837e+01 1.689110e+01 1.767486e+01 1.838891e+01 1.902238e+01 1.956471e+01 2.000609e+01 2.033796e+01 2.055348e+01 2.064796e+01 2.061916e+01 2.046742e+01 2.019562e+01 1.980898e+01 1.931468e+01 1.872143e+01 1.803904e+01 1.727796e+01 1.644887e+01 1.556228e+01 1.462827e+01 1.365614e+01 1.265422e+01 1.162970e+01 1.058860e+01 9.535966e+00 8.476398e+00 7.415010e+00 6.358989e+00 5.319175e+00 4.312243e+00 3.360701e+00 2.488862e+00 1.706075e+00 1.016208e+00 3.704422e-01 3.099377e-01 1.143598e+00 2.129301e+00 3.096481e+00 4.072915e+00 5.067436e+00 6.081545e+00 7.113917e+00 8.162096e+00 9.223114e+00 1.029354e+01 1.136941e+01 1.244609e+01 1.351814e+01 1.457912e+01 1.562155e+01 1.663679e+01 1.761504e+01 1.854536e+01 1.941582e+01 2.021372e+01 2.092595e+01 2.153951e+01 2.204209e+01 2.242271e+01 2.267246e+01 2.278510e+01 2.275752e+01 2.259004e+01 2.228635e+01 2.185321e+01 2.129985e+01 2.063739e+01 1.987817e+01 1.903508e+01 1.812102e+01 1.714844e+01 1.612898e+01 1.507319e+01 1.399042e+01 1.288874e+01 1.177507e+01 1.065543e+01 9.535385e+00 8.420839e+00 7.318840e+00 6.238546e+00 5.191504e+00 4.191106e+00 3.248860e+00 2.370143e+00 1.552310e+00 7.761651e-01 1.765963e-01 2.168954e-01 9.003960e-01 1.795589e+00 2.756855e+00 3.751417e+00 4.768112e+00 5.807428e+00 6.869433e+00 7.953149e+00 9.056736e+00 1.017772e+01 1.131303e+01 1.245896e+01 1.361100e+01 1.476370e+01 1.591048e+01 1.704347e+01 1.815340e+01 1.922947e+01 2.025935e+01 2.122927e+01 2.212420e+01 2.292830e+01 2.362553e+01 2.420038e+01 2.463878e+01 2.492910e+01 2.506304e+01 2.503635e+01 2.484936e+01 2.450697e+01 2.401797e+01 2.339431e+01 2.265022e+01 2.180117e+01 2.086308e+01 1.985156e+01 1.878132e+01 1.766581e+01 1.651701e+01 1.534532e+01 1.415961e+01 1.296745e+01 1.177532e+01 1.058908e+01 9.414451e+00 8.257484e+00 7.124915e+00 6.024091e+00 4.962035e+00 3.943897e+00 2.971566e+00 2.044285e+00 1.169332e+00 3.719459e-01 5.108126e-01 1.431415e+00 2.371616e+00 3.359478e+00 4.384712e+00 5.440601e+00 6.524517e+00 7.635468e+00 8.772414e+00 9.933886e+00 1.111788e+01 1.232178e+01 1.354225e+01 1.477507e+01 1.601497e+01 1.725538e+01 1.848819e+01 1.970360e+01 2.088984e+01 2.203311e+01 2.311756e+01 2.412546e+01 2.503763e+01 2.583417e+01 2.649553e+01 2.700349e+01 2.734277e+01 2.750240e+01 2.747626e+01 2.726475e+01 2.687472e+01 2.631775e+01 2.560942e+01 2.476807e+01 2.381316e+01 2.276437e+01 2.164059e+01 2.045919e+01 1.923568e+01 1.798348e+01 1.671400e+01 1.543677e+01 1.415968e+01 1.288929e+01 1.163124e+01 1.039053e+01 9.171831e+00 7.979552e+00 6.817548e+00 5.688450e+00 4.592708e+00 3.528015e+00 2.490527e+00 1.477634e+00 4.887959e-01 2.121714e-01 9.494322e-01 1.908923e+00 2.898738e+00 3.925370e+00 4.988287e+00 6.085204e+00 7.214552e+00 8.375430e+00 9.567062e+00 1.078842e+01 1.203802e+01 1.331381e+01 1.461300e+01 1.593186e+01 1.726549e+01 1.860757e+01 1.995001e+01 2.128263e+01 2.259284e+01 2.386537e+01 2.508214e+01 2.622232e+01 2.726264e+01 2.699951e+01 2.591888e+01 2.474039e+01 2.348691e+01 2.217885e+01 2.083388e+01 1.946690e+01 1.809016e+01 1.671357e+01 1.534503e+01 1.399084e+01 1.265601e+01 1.134456e+01 1.005969e+01 8.803709e+00 7.577736e+00 6.381017e+00 5.210056e+00 4.057692e+00 2.912589e+00 1.760576e+00 5.902418e-01 4.432722e-01 1.367979e+00 2.356556e+00 3.387778e+00 4.454799e+00 5.558043e+00 6.697505e+00 7.873062e+00 9.084594e+00 1.033191e+01 1.161460e+01 1.293184e+01 1.428229e+01 1.566389e+01 1.707362e+01 1.850728e+01 1.995906e+01 2.142124e+01 2.288361e+01 2.433304e+01 2.575291e+01 2.712291e+01 3.370083e+01 3.512082e+01 3.609453e+01 3.658063e+01 3.655727e+01 3.602443e+01 3.500387e+01 3.353694e+01 2.679100e+01 2.538735e+01 2.393495e+01 2.245366e+01 2.095969e+01 1.946584e+01 1.798204e+01 1.651584e+01 1.507287e+01 1.365726e+01 1.227187e+01 1.091845e+01 9.597565e+00 8.308210e+00 7.047206e+00 5.808090e+00 4.579461e+00 3.341952e+00 2.064268e+00 7.084349e-01 6.220145e-01 1.714109e+00 2.767388e+00 3.841097e+00 4.947964e+00 6.091544e+00 7.273724e+00 8.495588e+00 9.757931e+00 1.106133e+01 1.240613e+01 1.379234e+01 1.521948e+01 1.668644e+01 1.819122e+01 1.973059e+01 2.129976e+01 2.289178e+01 2.449697e+01 2.610216e+01 2.768972e+01 3.470398e+01 3.719866e+01 3.933254e+01 4.102160e+01 4.218993e+01 4.277931e+01 4.275804e+01 4.212604e+01 4.091482e+01 3.918251e+01 3.700501e+01 3.446637e+01 2.733593e+01 2.571931e+01 2.408556e+01 2.245186e+01 2.083107e+01 1.923260e+01 1.766316e+01 1.612734e+01 1.462810e+01 1.316701e+01 1.174445e+01 1.035953e+01 9.009809e+00 7.690694e+00 6.394419e+00 5.107941e+00 3.809009e+00 2.452302e+00 9.211626e-01 2.192297e-01 1.015107e+00 2.071893e+00 3.152026e+00 4.260723e+00 5.404073e+00 6.586363e+00 7.810208e+00 9.077606e+00 1.039017e+01 1.174930e+01 1.315619e+01 1.461179e+01 1.611670e+01 1.767098e+01 1.927394e+01 2.092378e+01 2.261715e+01 2.434856e+01 2.610962e+01 3.671815e+01 3.993490e+01 4.286847e+01 4.541028e+01 4.744611e+01 4.886883e+01 4.959406e+01 4.957498e+01 4.881143e+01 4.734986e+01 4.527450e+01 4.269244e+01 3.971799e+01 3.645990e+01 2.571670e+01 2.393056e+01 2.217354e+01 2.045378e+01 1.877658e+01 1.714503e+01 1.556058e+01 1.402341e+01 1.253255e+01 1.108596e+01 9.680283e+00 8.310556e+00 6.969430e+00 5.646186e+00 4.324160e+00 2.979199e+00 1.577653e+00 4.145667e-01 4.325041e-01 1.370807e+00 2.411102e+00 3.508404e+00 4.644989e+00 5.821100e+00 7.039499e+00 8.303092e+00 9.614422e+00 1.097581e+01 1.238946e+01 1.385747e+01 1.538185e+01 1.696442e+01 1.860667e+01 2.030953e+01 2.207307e+01 2.389601e+01 2.577505e+01 2.770405e+01 3.378991e+01 3.777349e+01 4.168919e+01 4.544656e+01 4.892899e+01 5.199506e+01 5.448754e+01 5.625166e+01 5.716114e+01 5.714446e+01 5.620128e+01 5.440256e+01 5.187427e+01 4.877122e+01 4.525082e+01 4.145479e+01 3.750001e+01 3.347712e+01 2.732987e+01 2.537952e+01 2.347825e+01 2.163206e+01 1.984408e+01 1.811539e+01 1.644562e+01 1.483332e+01 1.327619e+01 1.177118e+01 1.031445e+01 8.901229e+00 7.525788e+00 6.181363e+00 4.861573e+00 3.564520e+00 2.316201e+00 1.179100e+00 3.157779e-01 5.391923e-01 1.612392e+00 2.703063e+00 3.827067e+00 4.990119e+00 6.195754e+00 7.447393e+00 8.748199e+00 1.010116e+01 1.150919e+01 1.297524e+01 1.450236e+01 1.609367e+01 1.775238e+01 1.948159e+01 2.128422e+01 2.316265e+01 2.511829e+01 2.715098e+01 3.777918e+01 4.229762e+01 4.681399e+01 5.122886e+01 5.540294e+01 5.915361e+01 6.226206e+01 6.449857e+01 6.566672e+01 6.565279e+01 6.445617e+01 6.218958e+01 5.904903e+01 5.526441e+01 5.105498e+01 4.660386e+01 4.205078e+01 3.749547e+01 2.677879e+01 2.472741e+01 2.275178e+01 2.085204e+01 1.902667e+01 1.727305e+01 1.558793e+01 1.396758e+01 1.240799e+01 1.090491e+01 9.453974e+00 8.050991e+00 6.692714e+00 5.378620e+00 4.115728e+00 2.924125e+00 1.841635e+00 8.980968e-01 2.112260e-01 6.621743e-01 1.833417e+00 2.959763e+00 4.106672e+00 5.292614e+00 6.524372e+00 7.806084e+00 9.141142e+00 1.053283e+01 1.198456e+01 1.349998e+01 1.508305e+01 1.673810e+01 1.846978e+01 2.028302e+01 2.218297e+01 2.417474e+01 2.626314e+01 3.673516e+01 4.169930e+01 4.681844e+01 5.203355e+01 5.724444e+01 6.229376e+01 6.695188e+01 7.091393e+01 7.382811e+01 7.537415e+01 7.536365e+01 7.379542e+01 7.085607e+01 6.686543e+01 6.217588e+01 5.709328e+01 5.184812e+01 4.659839e+01 4.144464e+01 3.644611e+01 2.590042e+01 2.379534e+01 2.178547e+01 1.986607e+01 1.803193e+01 1.627772e+01 1.459819e+01 1.298827e+01 1.144324e+01 9.958879e+00 8.531937e+00 7.160848e+00 5.847243e+00 4.597807e+00 3.426086e+00 2.348961e+00 1.378321e+00 4.804964e-01 2.093623e-01 9.989610e-01 2.074648e+00 3.189861e+00 4.346051e+00 5.548917e+00 6.802951e+00 8.111418e+00 9.477479e+00 1.090451e+01 1.239629e+01 1.395711e+01 1.559183e+01 1.730596e+01 1.910564e+01 2.099775e+01 2.298984e+01 2.509008e+01 2.730717e+01 3.473212e+01 3.995499e+01 4.545986e+01 5.123657e+01 5.724773e+01 6.340938e+01 6.956227e+01 7.543690e+01 8.061760e+01 8.455075e+01 8.667024e+01 8.666449e+01 8.453099e+01 8.057796e+01 7.537144e+01 6.946688e+01 6.328189e+01 5.708734e+01 5.104326e+01 4.523401e+01 3.969715e+01 3.444289e+01 2.697414e+01 2.474352e+01 2.262837e+01 2.062019e+01 1.871088e+01 1.689286e+01 1.515922e+01 1.350375e+01 1.192103e+01 1.040665e+01 8.957511e+00 7.572414e+00 6.252774e+00 5.003365e+00 3.831990e+00 2.747236e+00 1.753042e+00 8.427288e-01 1.810622e-01 3.947280e-01 1.272031e+00 2.282833e+00 3.379586e+00 4.538146e+00 5.753958e+00 7.027068e+00 8.359203e+00 9.752916e+00 1.121152e+01 1.273907e+01 1.434044e+01 1.602133e+01 1.778837e+01 1.964920e+01 2.161262e+01 2.368864e+01 2.588863e+01 3.722848e+01 4.289041e+01 4.894427e+01 5.541273e+01 6.229919e+01 6.956443e+01 7.708479e+01 8.458729e+01 8.454691e+01 7.701393e+01 6.946132e+01 6.216378e+01 5.524574e+01 4.874666e+01 4.266318e+01 3.697260e+01 2.557628e+01 2.336437e+01 2.127555e+01 1.929863e+01 1.742374e+01 1.564223e+01 1.394663e+01 1.233070e+01 1.078947e+01 9.319491e+00 7.919080e+00 6.588691e+00 5.331024e+00 4.150650e+00 3.052957e+00 2.043488e+00 1.135433e+00 3.531809e-01 4.539731e-01 1.396393e+00 2.414433e+00 3.509502e+00 4.673721e+00 5.901870e+00 7.192305e+00 8.545531e+00 9.963589e+00 1.144971e+01 1.300819e+01 1.464441e+01 1.636484e+01 1.817716e+01 2.009039e+01 2.211511e+01 2.426370e+01 2.655066e+01 3.373998e+01 3.936276e+01 4.543283e+01 5.201114e+01 5.916436e+01 6.695837e+01 7.544014e+01 8.458831e+01 9.725299e+01 9.725603e+01 9.725600e+01 9.725291e+01 8.454348e+01 7.536127e+01 6.684717e+01 5.902271e+01 5.184076e+01 4.523525e+01 3.913934e+01 3.349195e+01 2.627372e+01 2.397751e+01 2.181920e+01 1.978456e+01 1.786145e+01 1.603952e+01 1.431007e+01 1.266591e+01 1.110136e+01 9.612255e+00 8.196121e+00 6.852213e+00 5.581533e+00 4.386575e+00 3.270808e+00 2.238134e+00 1.290706e+00 4.192728e-01 4.707680e-01 1.438208e+00 2.467887e+00 3.571208e+00 4.745876e+00 5.987869e+00 7.294982e+00 8.667226e+00 1.010638e+01 1.161570e+01 1.319975e+01 1.486437e+01 1.661669e+01 1.846530e+01 2.042039e+01 2.249409e+01 2.470080e+01 2.705778e+01 3.515883e+01 4.105097e+01 4.746808e+01 5.450329e+01 6.227269e+01 7.092047e+01 8.062093e+01 9.725604e+01 9.726212e+01 9.726515e+01 9.726512e+01 9.726204e+01 9.725592e+01 8.056442e+01 7.083157e+01 6.215466e+01 5.435861e+01 4.729878e+01 4.085879e+01 3.494531e+01 2.681709e+01 2.445314e+01 2.223952e+01 2.015927e+01 1.819823e+01 1.634458e+01 1.458846e+01 1.292178e+01 1.133806e+01 9.832349e+00 8.401229e+00 7.042765e+00 5.756493e+00 4.543347e+00 3.405582e+00 2.345942e+00 1.364123e+00 4.460296e-01 4.587738e-01 1.412433e+00 2.445849e+00 3.561407e+00 4.751142e+00 6.009103e+00 7.332828e+00 8.722249e+00 1.017922e+01 1.170717e+01 1.331097e+01 1.499686e+01 1.677253e+01 1.864727e+01 2.063217e+01 2.274050e+01 2.498822e+01 2.739463e+01 3.613012e+01 4.221722e+01 4.888904e+01 5.626595e+01 6.450806e+01 7.383381e+01 8.455343e+01 9.725297e+01 9.726211e+01 9.726819e+01 9.727122e+01 9.727120e+01 9.726812e+01 9.726200e+01 9.725283e+01 8.451492e+01 7.376402e+01 6.441119e+01 5.614497e+01 4.874631e+01 4.205473e+01 3.594967e+01 2.719047e+01 2.477901e+01 2.252693e+01 2.041515e+01 1.842797e+01 1.655240e+01 1.477768e+01 1.309494e+01 1.149699e+01 9.978105e+00 8.533925e+00 7.161364e+00 5.858541e+00 4.624926e+00 3.461843e+00 2.373994e+00 1.368802e+00 4.440717e-01 4.024701e-01 1.299737e+00 2.340341e+00 3.478280e+00 4.688671e+00 5.964999e+00 7.305276e+00 8.709985e+00 1.018132e+01 1.172303e+01 1.334032e+01 1.503982e+01 1.682961e+01 1.871944e+01 2.072095e+01 2.284808e+01 2.511765e+01 2.755016e+01 3.661254e+01 4.280331e+01 4.961133e+01 5.717286e+01 6.567405e+01 7.537819e+01 8.667188e+01 9.725600e+01 9.726513e+01 9.727121e+01 9.727424e+01 9.727422e+01 9.727115e+01 9.726503e+01 9.725587e+01 8.664514e+01 7.532352e+01 6.559544e+01 5.707328e+01 4.949319e+01 4.266873e+01 3.646348e+01 2.738212e+01 2.494621e+01 2.267458e+01 2.054687e+01 1.854647e+01 1.665968e+01 1.487518e+01 1.318357e+01 1.157709e+01 1.004936e+01 8.595203e+00 7.210429e+00 5.891696e+00 4.636439e+00 3.443838e+00 2.318269e+00 1.285723e+00 3.971548e-01 2.146695e-01 1.027792e+00 2.146613e+00 3.324388e+00 4.561051e+00 5.857246e+00 7.213597e+00 8.631348e+00 1.011327e+01 1.166354e+01 1.328772e+01 1.499275e+01 1.678696e+01 1.868031e+01 2.068459e+01 2.281384e+01 2.508493e+01 2.751838e+01 3.658433e+01 4.277758e+01 4.958815e+01 5.715244e+01 6.565684e+01 7.536510e+01 8.666465e+01 9.725596e+01 9.726509e+01 9.727117e+01 9.727421e+01 9.727419e+01 9.727112e+01 9.726501e+01 9.725585e+01 8.664395e+01 7.532170e+01 6.559361e+01 5.707187e+01 4.949250e+01 4.266896e+01 3.646477e+01 2.738524e+01 2.494994e+01 2.267894e+01 2.055177e+01 1.855173e+01 1.666499e+01 1.488007e+01 1.318731e+01 1.157864e+01 1.004722e+01 8.587228e+00 7.193587e+00 5.861531e+00 4.586126e+00 3.361076e+00 2.179574e+00 1.042086e+00 2.152530e-01 6.782463e-01 1.898513e+00 3.111929e+00 4.373490e+00 5.689626e+00 7.060737e+00 8.488791e+00 9.977100e+00 1.153036e+01 1.315452e+01 1.485674e+01 1.664549e+01 1.853063e+01 2.052372e+01 2.263835e+01 2.489065e+01 2.729994e+01 3.604554e+01 4.213999e+01 4.881929e+01 5.620425e+01 6.445561e+01 7.379292e+01 8.452847e+01 9.725285e+01 9.726199e+01 9.726808e+01 9.727112e+01 9.727110e+01 9.726804e+01 9.726192e+01 9.725275e+01 8.451044e+01 7.375793e+01 6.440529e+01 5.614048e+01 4.874404e+01 4.205529e+01 3.595344e+01 2.719973e+01 2.479020e+01 2.254007e+01 2.043003e+01 1.844406e+01 1.656881e+01 1.479303e+01 1.310718e+01 1.150310e+01 9.973759e+00 8.512976e+00 7.115108e+00 5.774601e+00 4.484869e+00 3.235885e+00 2.004711e+00 7.220948e-01 5.193129e-01 1.627214e+00 2.845405e+00 4.131610e+00 5.467160e+00 6.851225e+00 8.286188e+00 9.77