<VTKFile type="UnstructuredGrid" version="0.1" byte_order="LittleEndian">
   <UnstructuredGrid>
      <Piece  NumberOfPoints="2255"  NumberOfCells="2031">
         <Points>
            <DataArray type="Float32" NumberOfComponents="3" format="ascii">
1.562500e-01 -1.953125e+00 0.000000e+00
1.562500e-01 -2.031250e+00 0.000000e+00
2.343750e-01 -2.031250e+00 0.000000e+00
2.343750e-01 -1.953125e+00 0.000000e+00
-1.562500e-01 -1.875000e+00 0.000000e+00
-1.562500e-01 -1.953125e+00 0.000000e+00
-7.812500e-02 -1.953125e+00 0.000000e+00
-7.812500e-02 -1.875000e+00 0.000000e+00
0.000000e+00 -1.953125e+00 0.000000e+00
0.000000e+00 -1.875000e+00 0.000000e+00
7.812500e-02 -1.953125e+00 0.000000e+00
7.812500e-02 -1.875000e+00 0.000000e+00
1.562500e-01 -1.875000e+00 0.000000e+00
2.343750e-01 -1.875000e+00 0.000000e+00
3.125000e-01 -1.953125e+00 0.000000e+00
3.125000e-01 -1.875000e+00 0.000000e+00
-3.906250e-01 -1.796875e+00 0.000000e+00
-3.906250e-01 -1.875000e+00 0.000000e+00
-3.125000e-01 -1.875000e+00 0.000000e+00
-3.125000e-01 -1.796875e+00 0.000000e+00
-2.343750e-01 -1.875000e+00 0.000000e+00
-2.343750e-01 -1.796875e+00 0.000000e+00
-1.562500e-01 -1.796875e+00 0.000000e+00
-7.812500e-02 -1.796875e+00 0.000000e+00
0.000000e+00 -1.796875e+00 0.000000e+00
7.812500e-02 -1.796875e+00 0.000000e+00
1.562500e-01 -1.796875e+00 0.000000e+00
2.343750e-01 -1.796875e+00 0.000000e+00
3.125000e-01 -1.796875e+00 0.000000e+00
3.906250e-01 -1.875000e+00 0.000000e+00
3.906250e-01 -1.796875e+00 0.000000e+00
-5.468750e-01 -1.718750e+00 0.000000e+00
-5.468750e-01 -1.796875e+00 0.000000e+00
-4.687500e-01 -1.796875e+00 0.000000e+00
-4.687500e-01 -1.718750e+00 0.000000e+00
-3.906250e-01 -1.718750e+00 0.000000e+00
-3.125000e-01 -1.718750e+00 0.000000e+00
-2.343750e-01 -1.718750e+00 0.000000e+00
-1.562500e-01 -1.718750e+00 0.000000e+00
-7.812500e-02 -1.718750e+00 0.000000e+00
0.000000e+00 -1.718750e+00 0.000000e+00
7.812500e-02 -1.718750e+00 0.000000e+00
1.562500e-01 -1.718750e+00 0.000000e+00
2.343750e-01 -1.718750e+00 0.000000e+00
3.125000e-01 -1.718750e+00 0.000000e+00
3.906250e-01 -1.718750e+00 0.000000e+00
4.687500e-01 -1.796875e+00 0.000000e+00
4.687500e-01 -1.718750e+00 0.000000e+00
-7.031250e-01 -1.640625e+00 0.000000e+00
-7.031250e-01 -1.718750e+00 0.000000e+00
-6.250000e-01 -1.718750e+00 0.000000e+00
-6.250000e-01 -1.640625e+00 0.000000e+00
-5.468750e-01 -1.640625e+00 0.000000e+00
-4.687500e-01 -1.640625e+00 0.000000e+00
-3.906250e-01 -1.640625e+00 0.000000e+00
-3.125000e-01 -1.640625e+00 0.000000e+00
-2.343750e-01 -1.640625e+00 0.000000e+00
-1.562500e-01 -1.640625e+00 0.000000e+00
-7.812500e-02 -1.640625e+00 0.000000e+00
0.000000e+00 -1.640625e+00 0.000000e+00
7.812500e-02 -1.640625e+00 0.000000e+00
1.562500e-01 -1.640625e+00 0.000000e+00
2.343750e-01 -1.640625e+00 0.000000e+00
3.125000e-01 -1.640625e+00 0.000000e+00
3.906250e-01 -1.640625e+00 0.000000e+00
4.687500e-01 -1.640625e+00 0.000000e+00
5.468750e-01 -1.718750e+00 0.000000e+00
5.468750e-01 -1.640625e+00 0.000000e+00
6.250000e-01 -1.718750e+00 0.000000e+00
6.250000e-01 -1.640625e+00 0.000000e+00
7.031250e-01 -1.718750e+00 0.000000e+00
7.031250e-01 -1.640625e+00 0.000000e+00
7.812500e-01 -1.718750e+00 0.000000e+00
7.812500e-01 -1.640625e+00 0.000000e+00
8.593750e-01 -1.718750e+00 0.000000e+00
8.593750e-01 -1.640625e+00 0.000000e+00
9.375000e-01 -1.718750e+00 0.000000e+00
9.375000e-01 -1.640625e+00 0.000000e+00
1.015625e+00 -1.718750e+00 0.000000e+00
1.015625e+00 -1.640625e+00 0.000000e+00
1.093750e+00 -1.718750e+00 0.000000e+00
1.093750e+00 -1.640625e+00 0.000000e+00
-8.593750e-01 -1.562500e+00 0.000000e+00
-8.593750e-01 -1.640625e+00 0.000000e+00
-7.812500e-01 -1.640625e+00 0.000000e+00
-7.812500e-01 -1.562500e+00 0.000000e+00
-7.031250e-01 -1.562500e+00 0.000000e+00
-6.250000e-01 -1.562500e+00 0.000000e+00
-5.468750e-01 -1.562500e+00 0.000000e+00
-4.687500e-01 -1.562500e+00 0.000000e+00
-3.906250e-01 -1.562500e+00 0.000000e+00
-3.125000e-01 -1.562500e+00 0.000000e+00
-2.343750e-01 -1.562500e+00 0.000000e+00
-1.562500e-01 -1.562500e+00 0.000000e+00
-7.812500e-02 -1.562500e+00 0.000000e+00
0.000000e+00 -1.562500e+00 0.000000e+00
7.812500e-02 -1.562500e+00 0.000000e+00
1.562500e-01 -1.562500e+00 0.000000e+00
2.343750e-01 -1.562500e+00 0.000000e+00
3.125000e-01 -1.562500e+00 0.000000e+00
3.906250e-01 -1.562500e+00 0.000000e+00
4.687500e-01 -1.562500e+00 0.000000e+00
5.468750e-01 -1.562500e+00 0.000000e+00
6.250000e-01 -1.562500e+00 0.000000e+00
7.031250e-01 -1.562500e+00 0.000000e+00
7.812500e-01 -1.562500e+00 0.000000e+00
8.593750e-01 -1.562500e+00 0.000000e+00
9.375000e-01 -1.562500e+00 0.000000e+00
1.015625e+00 -1.562500e+00 0.000000e+00
1.093750e+00 -1.562500e+00 0.000000e+00
-1.015625e+00 -1.484375e+00 0.000000e+00
-1.015625e+00 -1.562500e+00 0.000000e+00
-9.375000e-01 -1.562500e+00 0.000000e+00
-9.375000e-01 -1.484375e+00 0.000000e+00
-8.593750e-01 -1.484375e+00 0.000000e+00
-7.812500e-01 -1.484375e+00 0.000000e+00
-7.031250e-01 -1.484375e+00 0.000000e+00
-6.250000e-01 -1.484375e+00 0.000000e+00
-5.468750e-01 -1.484375e+00 0.000000e+00
-4.687500e-01 -1.484375e+00 0.000000e+00
-3.906250e-01 -1.484375e+00 0.000000e+00
-3.125000e-01 -1.484375e+00 0.000000e+00
-2.343750e-01 -1.484375e+00 0.000000e+00
-1.562500e-01 -1.484375e+00 0.000000e+00
-7.812500e-02 -1.484375e+00 0.000000e+00
0.000000e+00 -1.484375e+00 0.000000e+00
7.812500e-02 -1.484375e+00 0.000000e+00
1.562500e-01 -1.484375e+00 0.000000e+00
2.343750e-01 -1.484375e+00 0.000000e+00
3.125000e-01 -1.484375e+00 0.000000e+00
3.906250e-01 -1.484375e+00 0.000000e+00
4.687500e-01 -1.484375e+00 0.000000e+00
5.468750e-01 -1.484375e+00 0.000000e+00
6.250000e-01 -1.484375e+00 0.000000e+00
7.031250e-01 -1.484375e+00 0.000000e+00
7.812500e-01 -1.484375e+00 0.000000e+00
8.593750e-01 -1.484375e+00 0.000000e+00
9.375000e-01 -1.484375e+00 0.000000e+00
1.015625e+00 -1.484375e+00 0.000000e+00
1.093750e+00 -1.484375e+00 0.000000e+00
1.171875e+00 -1.562500e+00 0.000000e+00
1.171875e+00 -1.484375e+00 0.000000e+00
-1.093750e+00 -1.406250e+00 0.000000e+00
-1.093750e+00 -1.484375e+00 0.000000e+00
-1.015625e+00 -1.406250e+00 0.000000e+00
-9.375000e-01 -1.406250e+00 0.000000e+00
-8.593750e-01 -1.406250e+00 0.000000e+00
-7.812500e-01 -1.406250e+00 0.000000e+00
-7.031250e-01 -1.406250e+00 0.000000e+00
-6.250000e-01 -1.406250e+00 0.000000e+00
-5.468750e-01 -1.406250e+00 0.000000e+00
-4.687500e-01 -1.406250e+00 0.000000e+00
-3.906250e-01 -1.406250e+00 0.000000e+00
-3.125000e-01 -1.406250e+00 0.000000e+00
-2.343750e-01 -1.406250e+00 0.000000e+00
-1.562500e-01 -1.406250e+00 0.000000e+00
-7.812500e-02 -1.406250e+00 0.000000e+00
0.000000e+00 -1.406250e+00 0.000000e+00
7.812500e-02 -1.406250e+00 0.000000e+00
1.562500e-01 -1.406250e+00 0.000000e+00
2.343750e-01 -1.406250e+00 0.000000e+00
3.125000e-01 -1.406250e+00 0.000000e+00
3.906250e-01 -1.406250e+00 0.000000e+00
4.687500e-01 -1.406250e+00 0.000000e+00
5.468750e-01 -1.406250e+00 0.000000e+00
6.250000e-01 -1.406250e+00 0.000000e+00
7.031250e-01 -1.406250e+00 0.000000e+00
7.812500e-01 -1.406250e+00 0.000000e+00
8.593750e-01 -1.406250e+00 0.000000e+00
9.375000e-01 -1.406250e+00 0.000000e+00
1.015625e+00 -1.406250e+00 0.000000e+00
1.093750e+00 -1.406250e+00 0.000000e+00
1.171875e+00 -1.406250e+00 0.000000e+00
-1.250000e+00 -1.328125e+00 0.000000e+00
-1.250000e+00 -1.406250e+00 0.000000e+00
-1.171875e+00 -1.406250e+00 0.000000e+00
-1.171875e+00 -1.328125e+00 0.000000e+00
-1.093750e+00 -1.328125e+00 0.000000e+00
-1.015625e+00 -1.328125e+00 0.000000e+00
-9.375000e-01 -1.328125e+00 0.000000e+00
-8.593750e-01 -1.328125e+00 0.000000e+00
-7.812500e-01 -1.328125e+00 0.000000e+00
-7.031250e-01 -1.328125e+00 0.000000e+00
-6.250000e-01 -1.328125e+00 0.000000e+00
-5.468750e-01 -1.328125e+00 0.000000e+00
-4.687500e-01 -1.328125e+00 0.000000e+00
-3.906250e-01 -1.328125e+00 0.000000e+00
-3.125000e-01 -1.328125e+00 0.000000e+00
-2.343750e-01 -1.328125e+00 0.000000e+00
-1.562500e-01 -1.328125e+00 0.000000e+00
-7.812500e-02 -1.328125e+00 0.000000e+00
0.000000e+00 -1.328125e+00 0.000000e+00
7.812500e-02 -1.328125e+00 0.000000e+00
1.562500e-01 -1.328125e+00 0.000000e+00
2.343750e-01 -1.328125e+00 0.000000e+00
3.125000e-01 -1.328125e+00 0.000000e+00
3.906250e-01 -1.328125e+00 0.000000e+00
4.687500e-01 -1.328125e+00 0.000000e+00
5.468750e-01 -1.328125e+00 0.000000e+00
6.250000e-01 -1.328125e+00 0.000000e+00
7.031250e-01 -1.328125e+00 0.000000e+00
7.812500e-01 -1.328125e+00 0.000000e+00
8.593750e-01 -1.328125e+00 0.000000e+00
9.375000e-01 -1.328125e+00 0.000000e+00
1.015625e+00 -1.328125e+00 0.000000e+00
1.093750e+00 -1.328125e+00 0.000000e+00
1.171875e+00 -1.328125e+00 0.000000e+00
-1.328125e+00 -1.250000e+00 0.000000e+00
-1.328125e+00 -1.328125e+00 0.000000e+00
-1.250000e+00 -1.250000e+00 0.000000e+00
-1.171875e+00 -1.250000e+00 0.000000e+00
-1.093750e+00 -1.250000e+00 0.000000e+00
-1.015625e+00 -1.250000e+00 0.000000e+00
-9.375000e-01 -1.250000e+00 0.000000e+00
-8.593750e-01 -1.250000e+00 0.000000e+00
-7.812500e-01 -1.250000e+00 0.000000e+00
-7.031250e-01 -1.250000e+00 0.000000e+00
-6.250000e-01 -1.250000e+00 0.000000e+00
-5.468750e-01 -1.250000e+00 0.000000e+00
-4.687500e-01 -1.250000e+00 0.000000e+00
-3.906250e-01 -1.250000e+00 0.000000e+00
-3.125000e-01 -1.250000e+00 0.000000e+00
-2.343750e-01 -1.250000e+00 0.000000e+00
-1.562500e-01 -1.250000e+00 0.000000e+00
-7.812500e-02 -1.250000e+00 0.000000e+00
0.000000e+00 -1.250000e+00 0.000000e+00
7.812500e-02 -1.250000e+00 0.000000e+00
1.562500e-01 -1.250000e+00 0.000000e+00
2.343750e-01 -1.250000e+00 0.000000e+00
3.125000e-01 -1.250000e+00 0.000000e+00
3.906250e-01 -1.250000e+00 0.000000e+00
4.687500e-01 -1.250000e+00 0.000000e+00
5.468750e-01 -1.250000e+00 0.000000e+00
6.250000e-01 -1.250000e+00 0.000000e+00
7.031250e-01 -1.250000e+00 0.000000e+00
7.812500e-01 -1.250000e+00 0.000000e+00
8.593750e-01 -1.250000e+00 0.000000e+00
9.375000e-01 -1.250000e+00 0.000000e+00
1.015625e+00 -1.250000e+00 0.000000e+00
1.093750e+00 -1.250000e+00 0.000000e+00
[...]
         <CellData Scalars="count">
            <DataArray type="Float64" Name="solution" format="ascii">
4.882623e-02 2.781329e-01 4.931110e-01 5.483674e-01 5.487398e-01 5.166641e-01 2.506835e-01 3.323832e-01 6.375214e-01 8.374555e-01 1.232334e+00 1.524557e+00 1.617162e+00 1.577901e+00 1.398082e+00 9.937001e-01 3.920099e-01 3.978414e-01 8.381352e-01 1.409660e+00 1.901693e+00 2.242947e+00 2.535460e+00 2.738698e+00 2.807263e+00 2.732925e+00 2.500089e+00 2.076322e+00 1.408585e+00 5.511489e-01 4.272159e-01 9.220892e-01 1.613908e+00 2.283105e+00 2.836403e+00 3.301966e+00 3.664773e+00 3.932458e+00 4.096635e+00 4.137384e+00 4.041313e+00 3.795820e+00 3.384431e+00 2.794136e+00 1.997898e+00 1.248881e+00 9.934856e-01 8.535200e-01 7.369054e-01 6.189445e-01 4.876830e-01 3.294400e-01 1.275497e-01 4.309169e-01 9.495128e-01 1.706227e+00 2.474636e+00 3.162343e+00 3.797834e+00 4.351076e+00 4.812604e+00 5.174628e+00 5.432750e+00 5.579293e+00 5.604272e+00 5.498766e+00 5.256436e+00 4.875590e+00 4.364416e+00 3.766870e+00 3.198558e+00 2.767361e+00 2.424716e+00 2.108138e+00 1.781884e+00 1.419207e+00 9.871856e-01 4.176218e-01 3.951737e-01 9.095171e-01 1.695702e+00 2.523017e+00 3.301215e+00 4.057713e+00 4.761290e+00 5.399472e+00 5.957462e+00 6.423298e+00 6.787916e+00 7.043792e+00 7.184019e+00 7.202059e+00 7.093454e+00 6.857574e+00 6.500116e+00 6.038824e+00 5.509967e+00 4.969980e+00 4.458567e+00 3.974068e+00 3.490641e+00 2.980499e+00 2.415512e+00 1.763845e+00 9.916186e-01 2.682899e-01 5.439792e-01 1.498165e+00 2.391700e+00 3.244898e+00 4.095148e+00 4.916369e+00 5.698008e+00 6.424711e+00 7.081981e+00 7.656326e+00 8.135665e+00 8.509853e+00 8.770602e+00 8.911233e+00 8.927103e+00 8.816487e+00 8.581949e+00 8.232213e+00 7.784114e+00 7.263909e+00 6.701671e+00 6.119829e+00 5.522648e+00 4.899905e+00 4.233024e+00 3.498013e+00 2.664921e+00 1.706583e+00 6.224895e-01 3.800490e-01 9.166754e-01 1.836159e+00 2.888643e+00 3.862011e+00 4.795027e+00 5.699888e+00 6.569900e+00 7.393572e+00 8.157543e+00 8.847743e+00 9.450554e+00 9.953451e+00 1.034552e+01 1.061782e+01 1.076370e+01 1.077934e+01 1.066442e+01 1.042298e+01 1.006420e+01 9.602831e+00 9.058015e+00 8.449908e+00 7.793695e+00 7.095650e+00 6.352429e+00 5.552779e+00 4.677608e+00 3.697181e+00 2.552840e+00 1.078927e+00 4.767288e-01 1.392780e+00 2.334492e+00 3.313609e+00 4.344780e+00 5.370278e+00 6.370024e+00 7.339116e+00 8.269262e+00 9.148829e+00 9.964233e+00 1.070107e+01 1.134497e+01 1.188240e+01 1.230134e+01 1.259191e+01 1.274700e+01 1.276286e+01 1.263974e+01 1.238228e+01 1.199966e+01 1.150513e+01 1.091469e+01 1.024449e+01 9.507806e+00 8.712513e+00 7.860236e+00 6.946274e+00 5.959518e+00 4.879608e+00 3.671986e+00 2.274278e+00 1.063525e+00 4.374453e-01 4.983654e-01 1.512398e+00 2.602112e+00 3.661905e+00 4.731955e+00 5.818576e+00 6.904805e+00 7.974846e+00 9.016753e+00 1.001892e+01 1.096809e+01 1.184951e+01 1.264746e+01 1.334610e+01 1.393020e+01 1.438599e+01 1.470205e+01 1.487018e+01 1.488611e+01 1.475018e+01 1.446746e+01 1.404748e+01 1.350342e+01 1.285060e+01 1.210466e+01 1.127942e+01 1.038534e+01 9.428647e+00 8.411352e+00 7.331749e+00 6.186531e+00 4.976963e+00 3.743806e+00 2.610034e+00 1.613297e+00 8.209558e-01 4.750170e-01 1.962677e-01 4.949019e-01 1.531058e+00 2.683629e+00 3.827358e+00 4.974921e+00 6.129899e+00 7.293240e+00 8.456557e+00 9.607679e+00 1.073382e+01 1.182129e+01 1.285497e+01 1.381821e+01 1.469328e+01 1.546203e+01 1.610669e+01 1.661089e+01 1.696081e+01 1.714633e+01 1.716204e+01 1.700816e+01 1.669050e+01 1.621979e+01 1.561050e+01 1.487933e+01 1.404351e+01 1.311916e+01 1.212006e+01 1.105706e+01 9.938249e+00 8.770262e+00 7.561195e+00 6.327873e+00 5.105855e+00 3.950026e+00 2.904311e+00 2.016386e+00 1.309615e+00 6.916280e-01 1.839796e-01 4.737839e-01 1.492612e+00 2.658552e+00 3.844743e+00 5.053742e+00 6.278442e+00 7.517722e+00 8.767577e+00 1.002042e+01 1.126536e+01 1.248930e+01 1.367721e+01 1.481208e+01 1.587500e+01 1.684550e+01 1.770226e+01 1.842405e+01 1.899069e+01 1.938476e+01 1.959323e+01 1.960855e+01 1.943072e+01 1.906723e+01 1.853106e+01 1.783953e+01 1.701252e+01 1.607049e+01 1.503313e+01 1.391819e+01 1.274096e+01 1.151453e+01 1.025097e+01 8.963788e+00 7.671294e+00 6.399609e+00 5.179606e+00 4.039481e+00 3.000303e+00 2.061165e+00 1.200280e+00 4.059297e-01 4.309882e-01 1.401257e+00 2.549083e+00 3.745887e+00 4.988086e+00 6.263630e+00 7.567379e+00 8.894171e+00 1.023837e+01 1.159184e+01 1.294373e+01 1.428048e+01 1.558584e+01 1.684088e+01 1.802406e+01 1.911149e+01 1.926062e+01 1.819247e+01 1.702423e+01 1.577822e+01 1.447389e+01 1.312811e+01 1.175615e+01 1.037303e+01 8.995177e+00 7.640782e+00 6.328101e+00 5.071527e+00 3.877070e+00 2.739099e+00 1.642090e+00 5.711531e-01 3.274578e-01 1.226488e+00 2.346572e+00 3.538306e+00 4.792696e+00 6.097327e+00 7.446027e+00 8.832917e+00 1.025283e+01 1.169942e+01 1.316440e+01 1.463680e+01 1.610258e+01 1.754433e+01 1.894116e+01 2.570747e+01 2.718156e+01 2.820415e+01 2.873288e+01 2.874543e+01 2.824178e+01 2.724421e+01 2.579486e+01 1.909265e+01 1.769613e+01 1.624796e+01 1.476786e+01 1.327272e+01 1.177742e+01 1.029561e+01 8.839636e+00 7.419221e+00 6.039025e+00 4.695766e+00 3.376068e+00 2.058724e+00 7.244700e-01 7.666019e-01 1.994508e+00 3.206920e+00 4.469416e+00 5.788508e+00 7.163235e+00 8.590076e+00 1.006533e+01 1.158445e+01 1.314164e+01 1.472902e+01 1.633592e+01 1.794814e+01 1.954722e+01 2.667245e+01 2.921926e+01 3.140390e+01 3.314068e+01 3.435228e+01 3.497946e+01 3.499004e+01 3.438392e+01 3.319304e+01 3.147622e+01 2.931014e+01 2.677954e+01 1.966514e+01 1.805346e+01 1.642230e+01 1.478925e+01 1.316815e+01 1.156984e+01 1.000209e+01 8.468750e+00 6.967885e+00 5.489251e+00 4.010884e+00 2.495648e+00 8.974616e-01 4.178837e-01 1.468208e+00 2.733389e+00 4.014054e+00 5.342199e+00 6.728850e+00 8.176800e+00 9.685684e+00 1.125363e+01 1.287766e+01 1.455320e+01 1.627355e+01 1.802902e+01 2.872048e+01 3.198248e+01 3.496229e+01 3.754947e+01 3.962807e+01 4.108945e+01 4.184816e+01 4.185687e+01 4.111544e+01 3.967085e+01 3.760806e+01 3.503501e+01 3.206664e+01 2.881216e+01 1.807805e+01 1.629335e+01 1.453562e+01 1.281285e+01 1.112920e+01 9.484430e+00 7.872619e+00 6.279751e+00 4.679750e+00 3.021386e+00 1.179922e+00 2.714848e-01 1.095081e+00 2.211897e+00 3.451886e+00 4.770801e+00 6.155278e+00 7.607388e+00 9.129273e+00 1.072202e+01 1.238563e+01 1.411898e+01 1.591946e+01 1.778231e+01 1.969973e+01 2.580492e+01 2.982101e+01 3.377416e+01 3.757228e+01 4.109692e+01 4.420474e+01 4.673656e+01 4.853582e+01 4.947499e+01 4.948196e+01 4.855661e+01 4.677069e+01 4.425125e+01 4.115409e+01 3.763739e+01 3.384329e+01 2.988882e+01 2.586453e+01 1.971804e+01 1.776982e+01 1.586750e+01 1.401604e+01 1.221650e+01 1.046588e+01 8.756405e+00 7.074303e+00 5.397219e+00 3.693246e+00 1.927403e+00 4.805102e-01 5.565572e-01 1.639684e+00 2.823208e+00 4.102042e+00 5.462791e+00 6.900703e+00 8.415926e+00 1.001070e+01 1.168732e+01 1.344765e+01 1.529283e+01 1.722284e+01 1.923584e+01 2.988068e+01 3.442779e+01 3.897829e+01 4.343121e+01 4.764542e+01 5.143621e+01 5.458239e+01 5.685187e+01 5.804648e+01 5.805183e+01 5.686789e+01 5.460881e+01 5.147233e+01 4.768973e+01 4.348119e+01 3.903020e+01 3.447649e+01 2.991953e+01 1.919971e+01 1.714786e+01 1.516665e+01 1.325412e+01 1.140517e+01 9.611559e+00 7.861648e+00 6.140927e+00 4.434881e+00 2.742715e+00 1.037576e+00 7.848145e-01 2.071347e+00 3.341168e+00 4.671028e+00 6.078811e+00 7.568975e+00 9.144917e+00 1.081022e+01 1.256880e+01 1.442463e+01 1.638153e+01 1.844279e+01 2.889735e+01 3.388041e+01 3.902577e+01 4.427322e+01 4.952126e+01 5.461077e+01 5.930982e+01 6.331041e+01 6.625726e+01 6.782722e+01 6.783099e+01 6.626872e+01 6.332980e+01 5.933698e+01 5.464470e+01 4.955983e+01 4.431303e+01 3.906198e+01 3.390673e+01 2.890589e+01 1.835705e+01 1.624808e+01 1.422761e+01 1.228856e+01 1.042242e+01 8.619735e+00 6.871274e+00 5.169807e+00 3.510746e+00 1.874269e+00 5.320979e-01 2.898492e-01 1.239821e+00 2.489155e+00 3.790898e+00 5.161203e+00 6.612243e+00 8.151598e+00 9.784580e+00 1.151648e+01 1.335300e+01 1.530045e+01 1.736569e+01 1.955592e+01 2.695998e+01 3.219131e+01 3.771328e+01 4.351489e+01 4.955793e+01 5.575750e+01 6.195295e+01 6.787243e+01 7.309621e+01 7.706487e+01 7.920669e+01 7.920866e+01 7.707142e+01 7.310866e+01 6.789160e+01 6.197859e+01 5.578805e+01 4.959044e+01 4.354492e+01 3.773491e+01 3.219713e+01 2.694098e+01 1.947205e+01 1.724070e+01 1.511945e+01 1.309889e+01 1.116981e+01 9.323981e+00 7.555209e+00 5.861604e+00 4.248299e+00 2.744044e+00 1.405303e+00 3.979695e-01 5.477618e-01 1.641380e+00 2.859007e+00 4.171522e+00 5.569391e+00 7.057208e+00 8.640573e+00 1.032543e+01 1.211821e+01 1.402636e+01 1.605856e+01 1.822487e+01 2.952301e+01 3.519224e+01 4.126221e+01 4.775505e+01 5.467383e+01 6.197906e+01 6.954657e+01 7.710181e+01 7.711321e+01 6.956546e+01 6.200455e+01 5.470346e+01 4.778480e+01 4.128656e+01 3.520430e+01 2.951447e+01 1.812320e+01 1.591065e+01 1.381785e+01 1.183431e+01 9.951771e+00 8.165305e+00 6.474953e+00 4.889247e+00 3.428758e+00 2.131236e+00 1.029733e+00 2.502649e-01 7.034893e-01 1.905002e+00 3.142606e+00 4.467575e+00 5.887883e+00 7.406562e+00 9.028179e+00 1.075850e+01 1.260478e+01 1.457591e+01 1.668280e+01 1.893870e+01 2.609412e+01 3.171446e+01 3.779140e+01 4.438536e+01 5.156277e+01 5.938974e+01 6.791394e+01 7.711517e+01 8.986698e+01 8.987007e+01 8.987009e+01 8.986704e+01 7.712819e+01 6.793684e+01 5.942055e+01 5.159775e+01 4.441935e+01 3.781799e+01 3.172611e+01 2.608216e+01 1.887402e+01 1.658233e+01 1.442793e+01 1.239834e+01 1.048433e+01 8.680475e+00 6.986187e+00 5.406789e+00 3.954639e+00 2.645504e+00 1.494349e+00 4.965251e-01 2.134517e-01 9.916360e-01 2.105322e+00 3.333587e+00 4.668637e+00 6.108119e+00 7.653233e+00 9.307297e+00 1.107592e+01 1.296682e+01 1.499008e+01 1.715848e+01 1.948807e+01 2.756025e+01 3.345056e+01 3.987467e+01 4.692529e+01 5.471853e+01 6.339920e+01 7.314326e+01 8.987009e+01 8.987621e+01 8.987929e+01 8.987931e+01 8.987628e+01 8.987019e+01 7.316561e+01 6.343494e+01 5.476395e+01 4.697535e+01 3.992336e+01 3.349106e+01 2.758500e+01 1.947261e+01 1.711722e+01 1.491372e+01 1.284741e+01 1.090751e+01 9.087139e+00 7.383583e+00 5.798350e+00 4.336115e+00 3.002082e+00 1.791063e+00 6.519324e-01 3.376460e-01 1.138545e+00 2.195096e+00 3.419246e+00 4.765391e+00 6.223233e+00 7.791278e+00 9.472221e+00 1.127143e+01 1.319695e+01 1.525964e+01 1.747364e+01 1.985706e+01 2.856928e+01 3.465593e+01 4.133531e+01 4.872742e+01 5.699242e+01 6.634946e+01 7.711070e+01 8.986709e+01 8.987627e+01 8.988239e+01 8.988547e+01 8.988549e+01 8.988246e+01 8.987638e+01 8.986724e+01 7.713443e+01 6.639397e+01 5.705336e+01 4.879957e+01 4.141292e+01 3.473285e+01 2.863900e+01 1.990131e+01 1.750088e+01 1.526294e+01 1.317075e+01 1.121185e+01 9.377687e+00 7.663331e+00 6.066904e+00 4.588691e+00 3.229420e+00 1.991247e+00 8.933116e-01 1.726685e-01 2.149134e-01 1.002735e+00 2.134304e+00 3.386359e+00 4.751929e+00 6.228625e+00 7.816897e+00 9.519296e+00 1.134112e+01 1.329045e+01 1.537853e+01 1.762019e+01 2.003467e+01 2.908074e+01 3.527316e+01 4.208971e+01 4.966622e+01 5.818871e+01 6.792081e+01 7.925024e+01 8.987022e+01 8.987939e+01 8.988551e+01 8.988859e+01 8.988862e+01 8.988559e+01 8.987952e+01 8.987040e+01 7.927830e+01 6.797858e+01 5.827042e+01 4.976621e+01 4.220242e+01 3.539303e+01 2.920226e+01 2.014684e+01 1.772284e+01 1.546713e+01 1.336144e+01 1.139204e+01 9.548973e+00 7.825496e+00 6.217394e+00 4.722063e+00 3.337461e+00 2.063886e+00 9.231250e-01 1.752530e-01 7.205377e-01 1.957143e+00 3.241212e+00 4.627348e+00 6.122948e+00 7.728802e+00 9.447429e+00 1.128380e+01 1.324580e+01 1.534456e+01 1.759484e+01 2.001578e+01 2.907402e+01 3.527174e+01 4.209225e+01 4.967143e+01 5.819525e+01 6.792712e+01 7.925424e+01 8.987028e+01 8.987945e+01 8.988558e+01 8.988866e+01 8.988869e+01 8.988567e+01 8.987960e+01 8.987048e+01 7.929239e+01 6.800394e+01 5.830339e+01 4.980484e+01 4.224558e+01 3.544008e+01 2.925281e+01 2.020134e+01 1.777745e+01 1.552205e+01 1.341648e+01 1.144643e+01 9.601097e+00 7.872568e+00 6.255181e+00 4.744719e+00 3.336629e+00 2.018600e+00 7.381904e-01 5.667216e-01 1.704409e+00 2.988127e+00 4.393320e+00 5.907235e+00 7.528401e+00 9.258295e+00 1.110137e+01 1.306501e+01 1.515979e+01 1.739974e+01 1.980275e+01 2.855058e+01 3.465300e+01 4.134419e+01 4.874436e+01 5.701357e+01 6.637039e+01 7.712561e+01 8.986727e+01 8.987646e+01 8.988260e+01 8.988568e+01 8.988572e+01 8.988270e+01 8.987663e+01 8.986750e+01 7.718336e+01 6.647340e+01 5.715410e+01 4.891650e+01 4.154304e+01 3.487437e+01 2.879087e+01 2.006432e+01 1.766448e+01 1.542786e+01 1.333659e+01 1.137658e+01 9.536802e+00 7.808753e+00 6.186068e+00 4.664279e+00 3.241028e+00 1.913009e+00 6.610306e-01 3.009058e-01 1.290548e+00 2.620339e+00 4.051173e+00 5.584864e+00 7.219708e+00 8.956486e+00 1.079890e+01 1.275365e+01 1.483051e+01 1.704230e+01 1.940514e+01 2.753397e+01 3.345005e+01 3.989358e+01 4.695774e+01 5.475860e+01 6.344034e+01 7.317723e+01 8.987041e+01 8.987655e+01 8.987965e+01 8.987969e+01 8.987667e+01 8.987060e+01 7.326544e+01 6.357699e+01 5.493731e+01 4.717344e+01 4.014214e+01 3.372806e+01 2.783876e+01 1.974258e+01 1.738907e+01 1.518892e+01 1.312593e+01 1.118691e+01 9.361122e+00 7.639912e+00 6.016346e+00 4.485696e+00 3.047740e+00 1.723856e+00 5.642326e-01 7.838689e-01 2.151205e+00 3.606069e+00 5.161750e+00 6.809605e+00 8.549542e+00 1.038458e+01 1.232072e+01 1.436682e+01 1.653441e+01 1.883750e+01 2.606738e+01 3.172265e+01 3.782615e+01 4.443910e+01 5.162817e+01 5.945905e+01 6.797810e+01 7.716259e+01 8.986746e+01 8.987057e+01 8.987061e+01 8.986759e+01 7.723589e+01 6.810511e+01 5.963560e+01 5.185004e+01 4.470250e+01 3.812782e+01 3.205997e+01 2.643854e+01 1.924838e+01 1.696091e+01 1.481332e+01 1.279172e+01 1.088434e+01 9.081173e+00 7.373660e+00 5.754468e+00 4.216335e+00 2.751608e+00 1.353972e+00 3.101681e-01 3.780717e-01 1.550626e+00 3.064626e+00 4.647165e+00 6.307958e+00 8.047982e+00 9.869631e+00 1.177826e+01 1.378206e+01 1.589140e+01 1.811831e+01 2.954821e+01 3.525032e+01 4.134446e+01 4.785338e+01 5.478016e+01 6.208474e+01 6.964180e+01 7.717541e+01 7.724386e+01 6.976028e+01 6.225493e+01 5.500086e+01 4.812224e+01 4.165884e+01 3.560774e+01 2.994667e+01 1.859836e+01 1.639326e+01 1.431208e+01 1.234360e+01 1.047780e+01 8.705734e+00 7.019296e+00 5.410982e+00 3.874018e+00 2.393932e+00 9.004126e-01 9.065146e-01 2.452568e+00 4.053455e+00 5.727405e+00 7.465359e+00 9.268173e+00 1.114101e+01 1.309203e+01 1.513101e+01 1.726844e+01 1.951485e+01 2.701201e+01 3.228135e+01 3.783205e+01 4.365412e+01 4.970983e+01 5.591444e+01 6.210729e+01 6.801693e+01 7.322554e+01 7.717859e+01 7.931263e+01 7.932273e+01 7.721316e+01 7.329439e+01 6.812957e+01 6.226977e+01 5.612929e+01 4.997718e+01 4.397269e+01 3.819994e+01 3.269655e+01 2.747284e+01 2.003779e+01 1.781214e+01 1.570193e+01 1.369835e+01 1.179295e+01 9.977672e+00 8.244824e+00 6.586780e+00 4.996289e+00 3.468013e+00 2.015222e+00 6.787661e-01 4.283114e-01 1.735090e+00 3.391250e+00 5.083827e+00 6.818634e+00 8.597177e+00 1.042584e+01 1.231413e+01 1.427219e+01 1.630954e+01 1.843437e+01 2.902852e+01 3.404388e+01 3.921359e+01 4.447831e+01 4.973715e+01 5.483167e+01 5.953108e+01 6.352956e+01 6.647542e+01 6.805019e+01 6.806875e+01 6.653308e+01 6.363115e+01 5.968194e+01 5.503583e+01 4.999672e+01 4.479368e+01 3.958386e+01 3.446738e+01 2.950325e+01 1.901126e+01 1.691051e+01 1.490403e+01 1.298653e+01 1.115224e+01 9.395155e+00 7.709025e+00 6.087117e+00 4.520581e+00 2.997424e+00 1.505072e+00 3.543862e-01 1.001546e+00 2.690779e+00 4.398034e+00 6.129209e+00 7.876543e+00 9.651139e+00 1.146633e+01 1.333387e+01 1.526286e+01 1.725962e+01 1.932738e+01 3.009671e+01 3.467126e+01 3.924304e+01 4.371191e+01 4.793770e+01 5.173698e+01 5.489045e+01 5.716859e+01 5.837607e+01 5.840089e+01 5.724405e+01 5.501913e+01 5.192194e+01 4.818147e+01 4.401590e+01 3.960739e+01 3.509498e+01 3.057789e+01 1.993177e+01 1.788585e+01 1.591445e+01 1.401707e+01 1.219145e+01 1.043430e+01 8.741579e+00 7.108863e+00 5.531028e+00 4.001532e+00 2.502185e+00 9.523706e-01 4.728954e-01 1.916841e+00 3.697468e+00 5.425584e+00 7.128948e+00 8.835441e+00 1.056574e+01 1.233361e+01 1.414792e+01 1.601331e+01 1.793043e+01 1.989565e+01 2.608062e+01 3.012626e+01 3.410390e+01 3.792225e+01 4.146377e+01 4.458632e+01 4.713223e+01 4.894680e+01 4.990438e+01 4.993436e+01 4.903731e+01 4.728477e+01 4.480276e+01 4.174572e+01 3.827053e+01 3.451829e+01 3.060539e+01 2.662201e+01 2.052213e+01 1.857993e+01 1.668550e+01 1.484412e+01 1.305815e+01 1.132782e+01 9.651831e+00 8.027968e+00 6.453500e+00 4.926030e+00 3.444562e+00 2.020932e+00 6.872876e-01 1.190675e+00 3.057980e+00 4.746625e+00 6.376403e+00 7.994957e+00 9.626762e+00 1.128624e+01 1.298123e+01 1.471456e+01 1.648462e+01 1.828526e+01 2.911949e+01 3.240512e+01 3.540596e+01 3.801254e+01 4.011014e+01 4.159154e+01 4.237263e+01 4.240714e+01 4.169548e+01 4.028456e+01 3.825878e+01 3.572520e+01 3.279790e+01 2.958530e+01 1.895487e+01 1.717970e+01 1.543160e+01 1.371803e+01 1.204337e+01 1.040966e+01 8.817176e+00 7.264941e+00 5.751471e+00 4.275658e+00 2.837998e+00 1.437447e+00 3.464573e-01 9.198054e-01 2.560199e+00 4.117014e+00 5.632355e+00 7.139559e+00 8.659092e+00 1.020256e+01 1.177546e+01 1.337834e+01 1.500739e+01 1.665442e+01 1.830669e+01 1.994642e+01 2.717040e+01 2.974141e+01 3.194888e+01 3.370815e+01 3.494306e+01 3.559549e+01 3.563411e+01 3.505931e+01 3.390302e+01 3.222368e+01 3.009735e+01 2.760812e+01 2.058681e+01 1.898847e+01 1.737112e+01 1.575173e+01 1.414268e+01 1.255264e+01 1.098734e+01 9.450080e+00 7.942165e+00 6.463245e+00 5.011987e+00 3.587350e+00 2.195333e+00 8.189102e-01 7.569291e-01 2.151386e+00 3.526120e+00 4.894136e+00 6.270476e+00 7.666483e+00 9.088657e+00 1.053897e+01 1.201525e+01 1.351142e+01 1.501752e+01 1.651965e+01 1.799995e+01 1.943678e+01 2.633473e+01 2.783359e+01 2.888164e+01 2.943760e+01 2.947995e+01 2.900916e+01 2.804751e+01 2.663677e+01 2.005761e+01 1.867901e+01 1.724937e+01 1.578864e+01 1.431283e+01 1.283425e+01 1.136211e+01 9.902929e+00 8.460885e+00 7.037949e+00 5.633933e+00 4.246424e+00 2.870600e+00 1.493217e+00 3.764560e-01 6.133211e-01 1.764862e+00 2.942168e+00 4.146810e+00 5.380895e+00 6.646959e+00 7.945931e+00 9.275857e+00 1.063163e+01 1.200488e+01 1.338393e+01 1.475380e+01 1.609642e+01 1.739089e+01 1.861404e+01 1.974076e+01 2.023744e+01 1.919212e+01 1.804566e+01 1.682159e+01 1.554068e+01 1.422065e+01 1.287615e+01 1.151895e+01 1.015825e+01 8.801022e+00 7.452201e+00 6.114490e+00 4.787692e+00 3.468299e+00 2.154329e+00 8.164768e-01 4.536543e-01 1.351447e+00 2.330871e+00 3.370329e+00 4.458983e+00 5.594026e+00 6.771719e+00 7.986361e+00 9.229972e+00 1.049198e+01 1.175898e+01 1.301475e+01 1.424061e+01 1.541606e+01 1.651942e+01 1.752851e+01 1.842131e+01 1.917665e+01 1.977491e+01 2.019952e+01 2.043834e+01 2.048452e+01 2.033820e+01 2.000649e+01 1.950155e+01 1.883981e+01 1.804051e+01 1.712404e+01 1.611088e+01 1.502050e+01 1.387059e+01 1.267664e+01 1.145176e+01 1.020678e+01 8.950573e+00 7.690343e+00 6.431950e+00 5.179477e+00 3.933757e+00 2.687750e+00 1.419095e+00 3.648735e-01 2.162419e-01 8.487158e-01 1.664595e+00 2.545240e+00 3.490340e+00 4.498149e+00 5.560201e+00 6.667442e+00 7.809441e+00 8.973616e+00 1.014484e+01 1.130529e+01 1.243505e+01 1.351323e+01 1.451908e+01 1.543270e+01 1.623550e+01 1.691047e+01 1.744263e+01 1.781982e+01 1.803338e+01 1.807899e+01 1.795717e+01 1.767333e+01 1.723701e+01 1.666109e+01 1.596077e+01 1.515250e+01 1.425302e+01 1.327856e+01 1.224415e+01 1.116318e+01 1.004712e+01 8.905590e+00 7.746675e+00 6.577623e+00 5.405229e+00 4.236608e+00 3.077425e+00 1.928740e+00 7.415063e-01 2.943279e-01 9.314706e-01 1.655863e+00 2.457891e+00 3.348172e+00 4.303064e+00 5.313491e+00 6.366308e+00 7.447720e+00 8.541101e+00 9.626363e+00 1.068109e+01 1.168289e+01 1.261118e+01 1.344799e+01 1.417786e+01 1.478753e+01 1.526594e+01 1.560444e+01 1.579723e+01 1.584171e+01 1.573886e+01 1.549321e+01 1.511246e+01 1.460697e+01 1.398903e+01 1.327206e+01 1.246993e+01 1.159627e+01 1.066395e+01 9.684487e+00 8.667707e+00 7.621600e+00 6.552941e+00 5.468109e+00 4.375022e+00 3.282994e+00 2.208629e+00 1.167785e+00 3.143400e-01 2.629034e-01 6.559275e-01 1.337265e+00 2.136456e+00 2.989542e+00 3.917223e+00 4.89