<VTKFile type="UnstructuredGrid" version="0.1" byte_order="LittleEndian">
   <UnstructuredGrid>
      <Piece  NumberOfPoints="2776"  NumberOfCells="2544">
         <Points>
            <DataArray type="Float32" NumberOfComponents="3" format="ascii">
1.562500e-01 -2.109375e+00 0.000000e+00
1.562500e-01 -2.187500e+00 0.000000e+00
2.343750e-01 -2.187500e+00 0.000000e+00
2.343750e-01 -2.109375e+00 0.000000e+00
3.125000e-01 -2.187500e+00 0.000000e+00
3.125000e-01 -2.109375e+00 0.000000e+00
3.906250e-01 -2.187500e+00 0.000000e+00
3.906250e-01 -2.109375e+00 0.000000e+00
4.687500e-01 -2.187500e+00 0.000000e+00
4.687500e-01 -2.109375e+00 0.000000e+00
5.468750e-01 -2.187500e+00 0.000000e+00
5.468750e-01 -2.109375e+00 0.000000e+00
-2.343750e-01 -2.031250e+00 0.000000e+00
-2.343750e-01 -2.109375e+00 0.000000e+00
-1.562500e-01 -2.109375e+00 0.000000e+00
-1.562500e-01 -2.031250e+00 0.000000e+00
-7.812500e-02 -2.109375e+00 0.000000e+00
-7.812500e-02 -2.031250e+00 0.000000e+00
0.000000e+00 -2.109375e+00 0.000000e+00
0.000000e+00 -2.031250e+00 0.000000e+00
7.812500e-02 -2.109375e+00 0.000000e+00
7.812500e-02 -2.031250e+00 0.000000e+00
1.562500e-01 -2.031250e+00 0.000000e+00
2.343750e-01 -2.031250e+00 0.000000e+00
3.125000e-01 -2.031250e+00 0.000000e+00
3.906250e-01 -2.031250e+00 0.000000e+00
4.687500e-01 -2.031250e+00 0.000000e+00
5.468750e-01 -2.031250e+00 0.000000e+00
6.250000e-01 -2.109375e+00 0.000000e+00
6.250000e-01 -2.031250e+00 0.000000e+00
-9.375000e-01 -1.953125e+00 0.000000e+00
-9.375000e-01 -2.031250e+00 0.000000e+00
-8.593750e-01 -2.031250e+00 0.000000e+00
-8.593750e-01 -1.953125e+00 0.000000e+00
-7.812500e-01 -2.031250e+00 0.000000e+00
-7.812500e-01 -1.953125e+00 0.000000e+00
-7.031250e-01 -2.031250e+00 0.000000e+00
-7.031250e-01 -1.953125e+00 0.000000e+00
-6.250000e-01 -2.031250e+00 0.000000e+00
-6.250000e-01 -1.953125e+00 0.000000e+00
-5.468750e-01 -2.031250e+00 0.000000e+00
-5.468750e-01 -1.953125e+00 0.000000e+00
-4.687500e-01 -2.031250e+00 0.000000e+00
-4.687500e-01 -1.953125e+00 0.000000e+00
-3.906250e-01 -2.031250e+00 0.000000e+00
-3.906250e-01 -1.953125e+00 0.000000e+00
-3.125000e-01 -2.031250e+00 0.000000e+00
-3.125000e-01 -1.953125e+00 0.000000e+00
-2.343750e-01 -1.953125e+00 0.000000e+00
-1.562500e-01 -1.953125e+00 0.000000e+00
-7.812500e-02 -1.953125e+00 0.000000e+00
0.000000e+00 -1.953125e+00 0.000000e+00
7.812500e-02 -1.953125e+00 0.000000e+00
1.562500e-01 -1.953125e+00 0.000000e+00
2.343750e-01 -1.953125e+00 0.000000e+00
3.125000e-01 -1.953125e+00 0.000000e+00
3.906250e-01 -1.953125e+00 0.000000e+00
4.687500e-01 -1.953125e+00 0.000000e+00
5.468750e-01 -1.953125e+00 0.000000e+00
6.250000e-01 -1.953125e+00 0.000000e+00
7.031250e-01 -2.031250e+00 0.000000e+00
7.031250e-01 -1.953125e+00 0.000000e+00
-1.093750e+00 -1.875000e+00 0.000000e+00
-1.093750e+00 -1.953125e+00 0.000000e+00
-1.015625e+00 -1.953125e+00 0.000000e+00
-1.015625e+00 -1.875000e+00 0.000000e+00
-9.375000e-01 -1.875000e+00 0.000000e+00
-8.593750e-01 -1.875000e+00 0.000000e+00
-7.812500e-01 -1.875000e+00 0.000000e+00
-7.031250e-01 -1.875000e+00 0.000000e+00
-6.250000e-01 -1.875000e+00 0.000000e+00
-5.468750e-01 -1.875000e+00 0.000000e+00
-4.687500e-01 -1.875000e+00 0.000000e+00
-3.906250e-01 -1.875000e+00 0.000000e+00
-3.125000e-01 -1.875000e+00 0.000000e+00
-2.343750e-01 -1.875000e+00 0.000000e+00
-1.562500e-01 -1.875000e+00 0.000000e+00
-7.812500e-02 -1.875000e+00 0.000000e+00
0.000000e+00 -1.875000e+00 0.000000e+00
7.812500e-02 -1.875000e+00 0.000000e+00
1.562500e-01 -1.875000e+00 0.000000e+00
2.343750e-01 -1.875000e+00 0.000000e+00
3.125000e-01 -1.875000e+00 0.000000e+00
3.906250e-01 -1.875000e+00 0.000000e+00
4.687500e-01 -1.875000e+00 0.000000e+00
5.468750e-01 -1.875000e+00 0.000000e+00
6.250000e-01 -1.875000e+00 0.000000e+00
7.031250e-01 -1.875000e+00 0.000000e+00
7.812500e-01 -1.953125e+00 0.000000e+00
7.812500e-01 -1.875000e+00 0.000000e+00
-1.250000e+00 -1.796875e+00 0.000000e+00
-1.250000e+00 -1.875000e+00 0.000000e+00
-1.171875e+00 -1.875000e+00 0.000000e+00
-1.171875e+00 -1.796875e+00 0.000000e+00
-1.093750e+00 -1.796875e+00 0.000000e+00
-1.015625e+00 -1.796875e+00 0.000000e+00
-9.375000e-01 -1.796875e+00 0.000000e+00
-8.593750e-01 -1.796875e+00 0.000000e+00
-7.812500e-01 -1.796875e+00 0.000000e+00
-7.031250e-01 -1.796875e+00 0.000000e+00
-6.250000e-01 -1.796875e+00 0.000000e+00
-5.468750e-01 -1.796875e+00 0.000000e+00
-4.687500e-01 -1.796875e+00 0.000000e+00
-3.906250e-01 -1.796875e+00 0.000000e+00
-3.125000e-01 -1.796875e+00 0.000000e+00
-2.343750e-01 -1.796875e+00 0.000000e+00
-1.562500e-01 -1.796875e+00 0.000000e+00
-7.812500e-02 -1.796875e+00 0.000000e+00
0.000000e+00 -1.796875e+00 0.000000e+00
7.812500e-02 -1.796875e+00 0.000000e+00
1.562500e-01 -1.796875e+00 0.000000e+00
2.343750e-01 -1.796875e+00 0.000000e+00
3.125000e-01 -1.796875e+00 0.000000e+00
3.906250e-01 -1.796875e+00 0.000000e+00
4.687500e-01 -1.796875e+00 0.000000e+00
5.468750e-01 -1.796875e+00 0.000000e+00
6.250000e-01 -1.796875e+00 0.000000e+00
7.031250e-01 -1.796875e+00 0.000000e+00
7.812500e-01 -1.796875e+00 0.000000e+00
8.593750e-01 -1.875000e+00 0.000000e+00
8.593750e-01 -1.796875e+00 0.000000e+00
9.375000e-01 -1.875000e+00 0.000000e+00
9.375000e-01 -1.796875e+00 0.000000e+00
1.015625e+00 -1.875000e+00 0.000000e+00
1.015625e+00 -1.796875e+00 0.000000e+00
1.093750e+00 -1.875000e+00 0.000000e+00
1.093750e+00 -1.796875e+00 0.000000e+00
1.171875e+00 -1.875000e+00 0.000000e+00
1.171875e+00 -1.796875e+00 0.000000e+00
1.250000e+00 -1.875000e+00 0.000000e+00
1.250000e+00 -1.796875e+00 0.000000e+00
-1.328125e+00 -1.718750e+00 0.000000e+00
-1.328125e+00 -1.796875e+00 0.000000e+00
-1.250000e+00 -1.718750e+00 0.000000e+00
-1.171875e+00 -1.718750e+00 0.000000e+00
-1.093750e+00 -1.718750e+00 0.000000e+00
-1.015625e+00 -1.718750e+00 0.000000e+00
-9.375000e-01 -1.718750e+00 0.000000e+00
-8.593750e-01 -1.718750e+00 0.000000e+00
-7.812500e-01 -1.718750e+00 0.000000e+00
-7.031250e-01 -1.718750e+00 0.000000e+00
-6.250000e-01 -1.718750e+00 0.000000e+00
-5.468750e-01 -1.718750e+00 0.000000e+00
-4.687500e-01 -1.718750e+00 0.000000e+00
-3.906250e-01 -1.718750e+00 0.000000e+00
-3.125000e-01 -1.718750e+00 0.000000e+00
-2.343750e-01 -1.718750e+00 0.000000e+00
-1.562500e-01 -1.718750e+00 0.000000e+00
-7.812500e-02 -1.718750e+00 0.000000e+00
0.000000e+00 -1.718750e+00 0.000000e+00
7.812500e-02 -1.718750e+00 0.000000e+00
1.562500e-01 -1.718750e+00 0.000000e+00
2.343750e-01 -1.718750e+00 0.000000e+00
3.125000e-01 -1.718750e+00 0.000000e+00
3.906250e-01 -1.718750e+00 0.000000e+00
4.687500e-01 -1.718750e+00 0.000000e+00
5.468750e-01 -1.718750e+00 0.000000e+00
6.250000e-01 -1.718750e+00 0.000000e+00
7.031250e-01 -1.718750e+00 0.000000e+00
7.812500e-01 -1.718750e+00 0.000000e+00
8.593750e-01 -1.718750e+00 0.000000e+00
9.375000e-01 -1.718750e+00 0.000000e+00
1.015625e+00 -1.718750e+00 0.000000e+00
1.093750e+00 -1.718750e+00 0.000000e+00
1.171875e+00 -1.718750e+00 0.000000e+00
1.250000e+00 -1.718750e+00 0.000000e+00
1.328125e+00 -1.796875e+00 0.000000e+00
1.328125e+00 -1.718750e+00 0.000000e+00
-1.484375e+00 -1.640625e+00 0.000000e+00
-1.484375e+00 -1.718750e+00 0.000000e+00
-1.406250e+00 -1.718750e+00 0.000000e+00
-1.406250e+00 -1.640625e+00 0.000000e+00
-1.328125e+00 -1.640625e+00 0.000000e+00
-1.250000e+00 -1.640625e+00 0.000000e+00
-1.171875e+00 -1.640625e+00 0.000000e+00
-1.093750e+00 -1.640625e+00 0.000000e+00
-1.015625e+00 -1.640625e+00 0.000000e+00
-9.375000e-01 -1.640625e+00 0.000000e+00
-8.593750e-01 -1.640625e+00 0.000000e+00
-7.812500e-01 -1.640625e+00 0.000000e+00
-7.031250e-01 -1.640625e+00 0.000000e+00
-6.250000e-01 -1.640625e+00 0.000000e+00
-5.468750e-01 -1.640625e+00 0.000000e+00
-4.687500e-01 -1.640625e+00 0.000000e+00
-3.906250e-01 -1.640625e+00 0.000000e+00
-3.125000e-01 -1.640625e+00 0.000000e+00
-2.343750e-01 -1.640625e+00 0.000000e+00
-1.562500e-01 -1.640625e+00 0.000000e+00
-7.812500e-02 -1.640625e+00 0.000000e+00
0.000000e+00 -1.640625e+00 0.000000e+00
7.812500e-02 -1.640625e+00 0.000000e+00
1.562500e-01 -1.640625e+00 0.000000e+00
2.343750e-01 -1.640625e+00 0.000000e+00
3.125000e-01 -1.640625e+00 0.000000e+00
3.906250e-01 -1.640625e+00 0.000000e+00
4.687500e-01 -1.640625e+00 0.000000e+00
5.468750e-01 -1.640625e+00 0.000000e+00
6.250000e-01 -1.640625e+00 0.000000e+00
7.031250e-01 -1.640625e+00 0.000000e+00
7.812500e-01 -1.640625e+00 0.000000e+00
8.593750e-01 -1.640625e+00 0.000000e+00
9.375000e-01 -1.640625e+00 0.000000e+00
1.015625e+00 -1.640625e+00 0.000000e+00
1.093750e+00 -1.640625e+00 0.000000e+00
1.171875e+00 -1.640625e+00 0.000000e+00
1.250000e+00 -1.640625e+00 0.000000e+00
1.328125e+00 -1.640625e+00 0.000000e+00
-1.562500e+00 -1.562500e+00 0.000000e+00
-1.562500e+00 -1.640625e+00 0.000000e+00
-1.484375e+00 -1.562500e+00 0.000000e+00
-1.406250e+00 -1.562500e+00 0.000000e+00
-1.328125e+00 -1.562500e+00 0.000000e+00
-1.250000e+00 -1.562500e+00 0.000000e+00
-1.171875e+00 -1.562500e+00 0.000000e+00
-1.093750e+00 -1.562500e+00 0.000000e+00
-1.015625e+00 -1.562500e+00 0.000000e+00
-9.375000e-01 -1.562500e+00 0.000000e+00
-8.593750e-01 -1.562500e+00 0.000000e+00
-7.812500e-01 -1.562500e+00 0.000000e+00
-7.031250e-01 -1.562500e+00 0.000000e+00
-6.250000e-01 -1.562500e+00 0.000000e+00
-5.468750e-01 -1.562500e+00 0.000000e+00
-4.687500e-01 -1.562500e+00 0.000000e+00
-3.906250e-01 -1.562500e+00 0.000000e+00
-3.125000e-01 -1.562500e+00 0.000000e+00
-2.343750e-01 -1.562500e+00 0.000000e+00
-1.562500e-01 -1.562500e+00 0.000000e+00
-7.812500e-02 -1.562500e+00 0.000000e+00
0.000000e+00 -1.562500e+00 0.000000e+00
7.812500e-02 -1.562500e+00 0.000000e+00
1.562500e-01 -1.562500e+00 0.000000e+00
2.343750e-01 -1.562500e+00 0.000000e+00
3.125000e-01 -1.562500e+00 0.000000e+00
3.906250e-01 -1.562500e+00 0.000000e+00
4.687500e-01 -1.562500e+00 0.000000e+00
5.468750e-01 -1.562500e+00 0.000000e+00
6.250000e-01 -1.562500e+00 0.000000e+00
7.031250e-01 -1.562500e+00 0.000000e+00
7.812500e-01 -1.562500e+00 0.000000e+00
8.593750e-01 -1.562500e+00 0.000000e+00
[...]
         <CellData Scalars="count">
            <DataArray type="Float64" Name="solution" format="ascii">
2.456236e-01 4.144744e-01 4.260288e-01 3.615332e-01 1.880950e-01 3.385614e-01 6.079131e-01 7.018122e-01 7.548101e-01 8.374979e-01 1.120540e+00 1.297745e+00 1.279306e+00 1.118029e+00 7.852921e-01 3.052174e-01 2.569608e-01 4.901808e-01 6.019144e-01 6.768688e-01 7.367105e-01 7.896774e-01 8.421159e-01 9.086103e-01 1.047416e+00 1.491452e+00 1.857715e+00 2.039427e+00 2.145674e+00 2.235967e+00 2.330418e+00 2.358490e+00 2.264490e+00 2.032217e+00 1.646947e+00 1.078805e+00 3.990410e-01 2.915795e-01 6.300701e-01 1.086478e+00 1.485526e+00 1.749479e+00 1.948097e+00 2.112136e+00 2.257843e+00 2.398466e+00 2.552857e+00 2.755400e+00 3.024022e+00 3.273457e+00 3.446011e+00 3.550226e+00 3.606211e+00 3.614197e+00 3.550348e+00 3.385215e+00 3.100173e+00 2.679990e+00 2.112090e+00 1.367054e+00 5.129610e-01 2.749515e-01 6.292951e-01 1.160429e+00 1.701548e+00 2.179145e+00 2.603611e+00 2.956983e+00 3.251609e+00 3.505443e+00 3.732164e+00 3.943507e+00 4.151792e+00 4.367891e+00 4.586656e+00 4.780259e+00 4.920696e+00 4.999993e+00 5.018035e+00 4.970660e+00 4.845283e+00 4.626796e+00 4.302378e+00 3.863305e+00 3.302810e+00 2.619601e+00 1.798784e+00 1.070516e+00 8.105176e-01 6.596516e-01 5.281590e-01 3.833266e-01 1.776253e-01 3.808061e-01 1.046027e+00 1.662771e+00 2.241068e+00 2.802689e+00 3.325357e+00 3.800469e+00 4.222681e+00 4.595144e+00 4.925529e+00 5.221997e+00 5.491794e+00 5.740759e+00 5.970889e+00 6.176590e+00 6.343808e+00 6.458051e+00 6.509837e+00 6.493841e+00 6.404434e+00 6.234130e+00 5.974751e+00 5.620098e+00 5.167421e+00 4.619924e+00 3.989976e+00 3.319964e+00 2.710578e+00 2.247384e+00 1.873482e+00 1.520332e+00 1.139818e+00 6.809163e-01 2.037990e-01 2.656346e-01 6.423960e-01 1.287717e+00 2.023492e+00 2.698321e+00 3.336893e+00 3.945756e+00 4.519486e+00 5.051794e+00 5.538963e+00 5.980682e+00 6.379375e+00 6.738320e+00 7.060400e+00 7.347035e+00 7.596898e+00 7.804656e+00 7.961685e+00 8.058503e+00 8.087401e+00 8.042551e+00 7.919063e+00 7.712330e+00 7.418669e+00 7.036541e+00 6.568248e+00 6.021850e+00 5.415479e+00 4.781683e+00 4.167430e+00 3.600653e+00 3.069670e+00 2.539660e+00 1.971957e+00 1.326378e+00 5.414013e-01 3.294178e-01 9.708355e-01 1.635717e+00 2.327350e+00 3.052475e+00 3.768541e+00 4.460298e+00 5.124114e+00 5.755353e+00 6.349012e+00 6.901117e+00 7.409387e+00 7.872886e+00 8.291282e+00 8.663985e+00 8.989409e+00 9.264290e+00 9.483422e+00 9.640078e+00 9.727266e+00 9.738822e+00 9.669935e+00 9.517043e+00 9.277841e+00 8.951639e+00 8.540160e+00 8.048551e+00 7.486759e+00 6.870725e+00 6.222853e+00 5.566410e+00 4.915225e+00 4.264813e+00 3.596258e+00 2.881885e+00 2.088040e+00 1.174004e+00 3.237822e-01 3.308309e-01 1.034353e+00 1.807914e+00 2.565585e+00 3.328748e+00 4.099067e+00 4.863575e+00 5.611289e+00 6.335001e+00 7.029027e+00 7.688059e+00 8.307366e+00 8.882953e+00 9.411457e+00 9.889765e+00 1.031457e+01 1.068196e+01 1.098718e+01 1.122459e+01 1.138812e+01 1.147189e+01 1.147090e+01 1.138151e+01 1.120160e+01 1.093074e+01 1.057046e+01 1.012467e+01 9.600136e+00 9.006944e+00 8.358553e+00 7.670465e+00 6.957055e+00 6.226345e+00 5.476882e+00 4.697662e+00 3.870265e+00 2.970456e+00 1.969907e+00 7.990972e-01 2.690448e-01 9.793862e-01 1.815992e+00 2.652708e+00 3.487519e+00 4.320590e+00 5.151973e+00 5.976305e+00 6.786404e+00 7.575621e+00 8.337785e+00 9.066973e+00 9.757441e+00 1.040365e+01 1.100019e+01 1.154165e+01 1.202241e+01 1.243654e+01 1.277777e+01 1.303969e+01 1.321609e+01 1.330149e+01 1.329164e+01 1.318389e+01 1.297742e+01 1.267345e+01 1.227528e+01 1.178848e+01 1.122095e+01 1.058279e+01 9.885850e+00 9.142432e+00 8.363175e+00 7.554632e+00 6.717478e+00 5.846294e+00 4.930296e+00 3.953392e+00 2.891918e+00 1.695584e+00 5.497900e-01 6.542272e-01 1.658765e+00 2.589381e+00 3.503361e+00 4.410110e+00 5.313013e+00 6.211829e+00 7.103359e+00 7.982500e+00 8.843322e+00 9.679550e+00 1.048464e+01 1.125180e+01 1.197401e+01 1.264397e+01 1.325417e+01 1.379683e+01 1.426399e+01 1.464772e+01 1.494043e+01 1.513526e+01 1.522662e+01 1.521059e+01 1.508530e+01 1.485112e+01 1.451073e+01 1.406912e+01 1.353342e+01 1.291269e+01 1.221753e+01 1.145938e+01 1.064950e+01 9.797588e+00 8.910470e+00 7.991201e+00 7.039016e+00 6.049943e+00 5.018330e+00 3.938754e+00 2.821141e+00 1.695006e+00 7.984379e-01 3.233764e-01 3.945943e-01 1.322838e+00 2.374751e+00 3.376862e+00 4.360133e+00 5.336160e+00 6.308967e+00 7.278639e+00 8.242705e+00 9.196861e+00 1.013557e+01 1.105241e+01 1.194020e+01 1.279109e+01 1.359655e+01 1.434748e+01 1.503421e+01 1.564674e+01 1.617491e+01 1.660881e+01 1.693924e+01 1.715820e+01 1.725949e+01 1.723919e+01 1.709599e+01 1.683139e+01 1.644960e+01 1.595738e+01 1.536364e+01 1.467902e+01 1.391523e+01 1.308439e+01 1.219809e+01 1.126655e+01 1.029780e+01 9.297315e+00 8.268237e+00 7.212327e+00 6.131833e+00 5.033961e+00 3.937712e+00 2.890129e+00 1.967791e+00 1.172113e+00 5.401596e-01 2.032180e-01 2.915690e-01 1.095575e+00 2.096759e+00 3.135567e+00 4.180677e+00 5.222974e+00 6.264847e+00 7.307629e+00 8.350759e+00 9.391758e+00 1.042653e+01 1.144958e+01 1.245420e+01 1.343256e+01 1.437569e+01 1.527356e+01 1.611511e+01 1.688844e+01 1.758104e+01 1.818021e+01 1.867359e+01 1.904981e+01 1.929918e+01 1.941439e+01 1.939115e+01 1.922856e+01 1.892927e+01 1.849927e+01 1.794743e+01 1.728494e+01 1.652457e+01 1.567992e+01 1.476461e+01 1.379157e+01 1.277229e+01 1.171644e+01 1.063175e+01 9.524372e+00 8.399850e+00 7.265001e+00 6.130656e+00 5.015945e+00 3.949963e+00 2.966362e+00 2.083860e+00 1.322796e+00 6.786294e-01 1.769320e-01 6.813722e-01 1.766307e+00 2.823286e+00 3.898655e+00 4.987707e+00 6.086068e+00 7.192254e+00 8.305632e+00 9.424736e+00 1.054682e+01 1.166771e+01 1.278181e+01 1.388208e+01 1.495996e+01 1.600538e+01 1.700673e+01 1.795086e+01 1.882336e+01 1.960882e+01 2.029146e+01 2.085582e+01 2.128764e+01 2.157481e+01 2.170833e+01 2.168306e+01 2.149838e+01 2.115836e+01 2.067116e+01 2.004840e+01 1.930426e+01 1.845441e+01 1.751512e+01 1.650234e+01 1.543095e+01 1.431425e+01 1.316365e+01 1.198877e+01 1.079780e+01 9.598394e+00 8.398891e+00 7.210010e+00 6.046052e+00 4.924850e+00 3.863596e+00 2.874706e+00 1.965355e+00 1.135087e+00 3.815332e-01 3.767511e-01 1.312317e+00 2.424008e+00 3.528739e+00 4.648295e+00 5.786192e+00 6.941355e+00 8.112323e+00 9.297684e+00 1.049550e+01 1.170282e+01 1.291544e+01 1.412764e+01 1.533207e+01 1.651955e+01 1.767891e+01 1.879688e+01 1.985809e+01 2.084524e+01 2.173947e+01 2.252118e+01 2.317096e+01 2.367062e+01 2.400474e+01 2.416185e+01 2.413516e+01 2.392425e+01 2.353520e+01 2.297903e+01 2.227101e+01 2.142937e+01 2.047364e+01 1.942365e+01 1.829841e+01 1.711534e+01 1.588979e+01 1.463491e+01 1.336177e+01 1.207979e+01 1.079740e+01 9.522859e+00 8.265005e+00 7.033611e+00 5.838511e+00 4.687709e+00 3.584966e+00 2.528665e+00 1.512000e+00 5.248598e-01 2.497475e-01 9.981691e-01 1.996293e+00 3.083849e+00 4.216937e+00 5.378984e+00 6.567462e+00 7.780863e+00 9.017900e+00 1.027711e+01 1.155653e+01 1.285329e+01 1.416331e+01 1.548094e+01 1.679869e+01 1.810692e+01 1.939347e+01 2.064346e+01 2.183912e+01 2.295988e+01 2.398272e+01 2.366863e+01 2.258699e+01 2.140713e+01 2.015195e+01 1.884182e+01 1.749431e+01 1.612414e+01 1.474344e+01 1.336216e+01 1.198868e+01 1.063030e+01 9.293638e+00 7.984513e+00 6.707190e+00 5.462852e+00 4.247771e+00 3.051806e+00 1.858911e+00 6.535985e-01 5.193169e-01 1.517128e+00 2.582703e+00 3.707544e+00 4.876910e+00 6.083428e+00 7.323799e+00 8.596722e+00 9.901216e+00 1.123618e+01 1.260001e+01 1.399026e+01 1.540326e+01 1.683374e+01 1.827443e+01 1.971550e+01 2.114411e+01 2.254389e+01 2.389464e+01 3.041517e+01 3.182778e+01 3.279604e+01 3.327809e+01 3.325158e+01 3.271597e+01 3.169263e+01 3.022258e+01 2.346553e+01 2.205995e+01 2.060521e+01 1.912105e+01 1.762354e+01 1.612541e+01 1.463657e+01 1.316475e+01 1.171592e+01 1.029448e+01 8.903126e+00 7.542048e+00 6.207615e+00 4.890339e+00 3.571741e+00 2.220736e+00 7.980119e-01 7.522783e-01 1.958048e+00 3.111710e+00 4.287258e+00 5.500756e+00 6.754182e+00 8.047652e+00 9.380978e+00 1.075398e+01 1.216624e+01 1.361688e+01 1.510421e+01 1.662538e+01 1.817594e+01 1.974926e+01 2.133594e+01 2.292294e+01 2.449272e+01 3.146026e+01 3.394384e+01 3.606876e+01 3.775076e+01 3.891352e+01 3.949838e+01 3.947321e+01 3.883750e+01 3.762245e+01 3.588598e+01 3.370385e+01 3.116008e+01 2.401651e+01 2.239738e+01 2.076057e+01 1.912310e+01 1.749771e+01 1.589368e+01 1.431760e+01 1.277386e+01 1.126486e+01 9.790840e+00 8.349294e+00 6.933815e+00 5.531943e+00 4.121570e+00 2.659176e+00 1.037281e+00 3.038584e-01 1.240681e+00 2.421469e+00 3.610744e+00 4.827948e+00 6.084342e+00 7.384939e+00 8.731633e+00 1.012553e+01 1.156740e+01 1.305780e+01 1.459686e+01 1.618404e+01 1.781776e+01 1.949489e+01 2.121016e+01 2.295531e+01 3.350358e+01 3.670868e+01 3.963257e+01 4.216648e+01 4.419595e+01 4.561345e+01 4.633415e+01 4.631082e+01 4.554294e+01 4.407673e+01 4.199628e+01 3.940866e+01 3.642817e+01 3.316360e+01 2.240003e+01 2.061004e+01 1.884820e+01 1.712246e+01 1.543778e+01 1.379673e+01 1.219982e+01 1.064544e+01 9.129541e+00 7.644803e+00 6.179459e+00 4.714925e+00 3.224833e+00 1.680729e+00 4.179989e-01 6.336322e-01 1.731019e+00 2.879072e+00 4.080630e+00 5.328025e+00 6.623416e+00 7.969461e+00 9.368386e+00 1.082206e+01 1.233224e+01 1.390059e+01 1.552855e+01 1.721709e+01 1.896637e+01 2.077523e+01 2.264051e+01 2.455614e+01 3.061397e+01 3.458425e+01 3.848833e+01 4.223587e+01 4.571018e+01 4.876972e+01 5.125692e+01 5.301660e+01 5.392198e+01 5.390106e+01 5.295317e+01 5.114911e+01 4.861485e+01 4.550527e+01 4.197793e+01 3.817460e+01 3.421220e+01 3.018132e+01 2.402226e+01 2.206817e+01 2.016212e+01 1.830981e+01 1.651399e+01 1.477512e+01 1.309183e+01 1.146104e+01 9.877874e+00 8.335409e+00 6.824343e+00 5.333359e+00 3.851567e+00 2.380541e+00 8.997193e-01 2.454520e-01 1.053027e+00 2.135543e+00 3.288688e+00 4.505443e+00 5.780185e+00 7.111684e+00 8.501067e+00 9.950373e+00 1.146207e+01 1.303887e+01 1.468370e+01 1.639952e+01 1.818918e+01 2.005507e+01 2.199867e+01 2.401989e+01 3.461116e+01 3.911836e+01 4.362507e+01 4.803193e+01 5.219963e+01 5.594542e+01 5.905013e+01 6.128350e+01 6.244846e+01 6.243067e+01 6.122911e+01 5.895647e+01 5.580894e+01 5.201673e+01 4.779935e+01 4.334009e+01 3.877873e+01 3.421493e+01 2.347766e+01 2.142180e+01 1.944030e+01 1.753294e+01 1.569766e+01 1.393106e+01 1.222868e+01 1.058512e+01 8.994175e+00 7.449160e+00 5.943820e+00 4.473904e+00 3.037700e+00 1.620438e+00 4.593188e-01 4.583419e-01 1.397624e+00 2.469620e+00 3.635376e+00 4.873072e+00 6.175933e+00 7.542206e+00 8.972804e+00 1.047002e+01 1.203700e+01 1.367749e+01 1.539579e+01 1.719659e+01 1.908490e+01 2.106579e+01 2.314409e+01 3.358428e+01 3.853775e+01 4.364758e+01 4.885489e+01 5.405962e+01 5.910444e+01 6.375967e+01 6.772006e+01 7.063311e+01 7.217752e+01 7.216393e+01 7.059058e+01 6.764422e+01 6.364528e+01 5.894679e+01 5.385510e+01 4.860092e+01 4.334229e+01 3.817966e+01 3.317213e+01 2.260671e+01 2.049635e+01 1.847959e+01 1.655134e+01 1.470591e+01 1.293735e+01 1.123964e+01 9.607055e+00 8.034673e+00 6.519409e+00 5.061926e+00 3.669054e+00 2.368161e+00 1.210673e+00 3.418465e-01 5.471058e-01 1.596729e+00 2.717057e+00 3.911674e+00 5.176370e+00 6.508658e+00 7.908621e+00 9.378056e+00 1.092001e+01 1.253849e+01 1.423839e+01 1.602543e+01 1.790618e+01 1.988799e+01 2.197897e+01 2.418784e+01 3.159446e+01 3.680737e+01 4.230342e+01 4.807260e+01 5.407769e+01 6.023495e+01 6.638531e+01 7.225936e+01 7.744119e+01 8.137630e+01 8.349680e+01 8.348930e+01 8.135035e+01 7.738870e+01 7.217182e+01 6.625649e+01 6.006104e+01 5.385656e+01 4.780307e+01 4.198472e+01 3.643886e+01 3.117546e+01 2.369369e+01 2.145862e+01 1.933764e+01 1.732214e+01 1.540389e+01 1.357520e+01 1.182918e+01 1.016003e+01 8.563601e+00 7.038381e+00 5.586958e+00 4.219208e+00 2.955566e+00 1.831818e+00 8.804401e-01 2.125489e-01 5.951222e-01 1.719422e+00 2.889317e+00 4.118518e+00 5.412460e+00 6.774001e+00 8.205762e+00 9.710951e+00 1.129360e+01 1.295870e+01 1.471228e+01 1.656151e+01 1.851482e+01 2.058202e+01 2.277436e+01 3.409115e+01 3.974492e+01 4.579165e+01 5.225418e+01 5.913611e+01 6.639854e+01 7.391819e+01 8.142258e+01 8.136814e+01 7.382186e+01 6.625721e+01 5.894893e+01 5.202113e+01 4.551295e+01 3.942069e+01 3.372138e+01 2.230684e+01 2.009027e+01 1.799580e+01 1.601243e+01 1.413056e+01 1.234211e+01 1.064068e+01 9.022022e+00 7.484570e+00 6.030526e+00 4.666905e+00 3.406794e+00 2.267116e+00 1.267166e+00 4.147260e-01 6.228476e-01 1.793787e+00 3.001057e+00 4.260250e+00 5.580966e+00 6.969228e+00 8.429619e+00 9.966541e+00 1.158492e+01 1.329063e+01 1.509073e+01 1.699374e+01 1.900984e+01 2.115115e+01 2.343205e+01 3.060934e+01 3.622486e+01 4.228846e+01 4.886118e+01 5.600983e+01 6.380055e+01 7.228068e+01 8.142947e+01 9.410018e+01 9.410322e+01 9.410318e+01 9.410008e+01 8.136832e+01 7.217257e+01 6.364722e+01 5.581304e+01 4.862232e+01 4.200851e+01 3.590450e+01 3.024898e+01 2.302083e+01 2.072102e+01 1.855860e+01 1.651972e+01 1.459279e+01 1.276834e+01 1.103903e+01 9.399825e+00 7.848218e+00 6.384573e+00 5.012274e+00 3.736886e+00 2.564110e+00 1.493736e+00 5.097430e-01 6.360174e-01 1.830590e+00 3.059796e+00 4.339903e+00 5.681705e+00 7.092312e+00 8.577041e+00 1.014083e+01 1.178912e+01 1.352839e+01 1.536655e+01 1.731320e+01 1.938001e+01 2.158112e+01 2.393361e+01 3.202504e+01 3.791171e+01 4.432395e+01 5.135495e+01 5.912094e+01 6.776630e+01 7.746571e+01 9.410327e+01 9.410934e+01 9.411236e+01 9.411233e+01 9.410925e+01 9.410312e+01 7.738882e+01 6.764502e+01 5.895904e+01 5.115497e+01 4.408763e+01 3.764035e+01 3.171963e+01 2.358154e+01 2.121478e+01 1.899822e+01 1.691542e+01 1.495290e+01 1.309980e+01 1.134771e+01 9.690514e+00 8.124403e+00 6.647753e+00 5.260673e+00 3.963846e+00 2.755804e+00 1.628625e+00 5.615484e-01 6.357624e-01 1.831728e+00 3.066698e+00 4.357235e+00 5.713362e+00 7.141226e+00 8.645496e+00 1.023080e+01 1.190257e+01 1.366757e+01 1.553421e+01 1.751289e+01 1.961639e+01 2.186031e+01 2.426379e+01 3.299260e+01 3.907601e+01 4.574450e+01 5.311847e+01 6.135810e+01 7.068197e+01 8.140054e+01 9.410023e+01 9.410936e+01 9.411544e+01 9.411846e+01 9.411844e+01 9.411536e+01 9.410923e+01 9.410005e+01 8.134929e+01 7.058908e+01 6.122864e+01 5.295564e+01 4.555055e+01 3.885268e+01 3.274133e+01 2.397276e+01 2.155890e+01 1.930459e+01 1.719128e+01 1.520397e+01 1.333065e+01 1.156187e+01 9.890489e+00 8.311446e+00 6.821473e+00 5.418572e+00 4.100893e+00 2.864643e+00 1.700237e+00 5.879150e-01 6.198396e-01 1.792516e+00 3.016853e+00 4.308376e+00 5.673052e+00 7.113748e+00 8.633061e+00 1.023452e+01 1.192308e+01 1.370543e+01 1.559021e+01 1.758824e+01 1.971292e+01 2.198068e+01 2.441184e+01 3.347092e+01 3.965980e+01 4.646600e+01 5.402577e+01 6.252529e+01 7.222788e+01 8.352016e+01 9.410329e+01 9.411241e+01 9.411848e+01 9.412151e+01 9.412149e+01 9.411842e+01 9.411230e+01 9.410313e+01 8.348633e+01 7.215862e+01 6.242519e+01 5.389792e+01 4.631273e+01 3.948306e+01 3.327248e+01 2.418247e+01 2.174419e+01 1.947054e+01 1.734162e+01 1.534149e+01 1.345734e+01 1.167898e+01 9.998430e+00 8.409639e+00 6.908187e+00 5.490944e+00 4.155645e+00 2.899774e+00 1.717632e+00 5.927790e-01 5.809529e-01 1.698549e+00 2.898411e+00 4.185905e+00 5.556741e+00 7.007815e+00 8.538727e+00 1.015142e+01 1.185012e+01 1.364124e+01 1.553337e+01 1.753746e+01 1.966698e+01 2.193848e+01 2.437225e+01 3.343853e+01 3.963171e+01 4.644196e+01 5.400566e+01 6.250918e+01 7.221615e+01 8.351390e+01 9.410327e+01 9.411239e+01 9.411847e+01 9.412151e+01 9.412149e+01 9.411842e+01 9.411230e+01 9.410314e+01 8.349039e+01 7.216618e+01 6.243545e+01 5.391052e+01 4.632747e+01 3.949982e+01 3.329119e+01 2.420367e+01 2.176570e+01 1.949239e+01 1.736369e+01 1.536346e+01 1.347862e+01 1.169860e+01 1.001488e+01 8.420717e+00 6.910833e+00 5.481416e+00 4.130494e+00 2.859632e+00 1.674148e+00 5.719238e-01 4.953057e-01 1.515813e+00 2.691164e+00 3.980664e+00 5.360587e+00 6.822453e+00 8.362980e+00 9.982689e+00 1.168511e+01 1.347639e+01 1.536502e+01 1.736174e+01 1.947970e+01 2.173481e+01 2.414622e+01 3.289578e+01 3.899200e+01 4.567251e+01 5.305809e+01 6.130942e+01 7.064585e+01 8.137941e+01 9.410018e+01 9.410932e+01 9.411541e+01 9.411845e+01 9.411843e+01 9.411537e+01 9.410925e+01 9.410008e+01 8.136310e+01 7.061247e+01 6.125976e+01 5.299359e+01 4.559485e+01 3.890304e+01 3.279753e+01 2.403620e+01 2.162340e+01 1.937026e+01 1.725780e+01 1.527045e+01 1.339543e+01 1.162219e+01 9.942030e+00 8.347734e+00 6.833317e+00 5.393865e+00 4.026403e+00 2.733409e+00 1.540420e+00 5.019182e-01 2.688133e-01 1.163658e+00 2.377345e+00 3.686427e+00 5.083377e+00 6.559007e+00 8.108561e+00 9.731669e+00 1.143163e+01 1.321458e+01 1.508896e+01 1.706521e+01 1.915582e+01 2.137550e+01 2.374154e+01 3.186492e+01 3.777255e+01 4.420443e+01 5.125428e+01 5.903893e+01 6.770365e+01 7.742455e+01 9.410320e+01 9.410929e+01 9.411234e+01 9.411233e+01 9.410926e+01 9.410315e+01 7.741596e+01 6.768590e+01 5.901186e+01 5.121872e+01 4.416177e+01 3.772451e+01 3.181354e+01 2.368669e+01 2.132214e+01 1.910804e+01 1.702725e+01 1.506549e+01 1.321076e+01 1.145295e+01 9.783511e+00 8.195055e+00 6.681026e+00 5.235173e+00 3.850255e+00 2.518091e+00 1.236076e+00 2.803309e-01 7.146830e-01 1.967680e+00 3.304546e+00 4.728248e+00 6.222415e+00 7.781187e+00 9.404265e+00 1.109553e+01 1.286168e+01 1.471135e+01 1.665470e+01 1.870332e+01 2.087034e+01 2.317066e+01 3.038772e+01 3.603185e+01 4.212223e+01 4.872044e+01 5.589388e+01 6.370940e+01 7.221518e+01 8.139133e+01 9.410012e+01 9.410318e+01 9.410317e+01 9.410010e+01 8.139391e+01 7.221619e+01 6.370731e+01 5.588848e+01 4.871240e+01 4.211281e+01 3.602273e+01 3.038090e+01 2.316685e+01 2.087102e+01 1.871295e+01 1.667806e+01 1.475380e+01 1.292941e+01 1.119556e+01 9.544148e+00 7.967990e+00 6.460510e+00 5.014941e+00 3.622119e+00 2.260122e+00 8.542437e-01 3.475298e-01 1.433376e+00 2.840096e+00 4.303831e+00 5.822181e+00 7.390192e+00 9.009129e+00 1.068486e+01 1.242550e+01 1.424029e+01 1.613917e+01 1.813271e+01 2.023221e+01 2.244987e+01 3.384614e+01 3.953327e+01 4.561156e+01 5.210432e+01 5.901561e+01 6.630687e+01 7.385484e+01 8.138608e+01 8.139283e+01 7.386477e+01 6.631896e+01 5.902933e+01 5.211986e+01 4.562975e+01 3.955542e+01 3.387392e+01 2.249266e+01 2.028253e+01 1.819505e+01 1.621851e+01 1.434250e+01 1.255771e+01 1.085589e+01 9.229634e+00 7.672263e+00 6.177758e+00 4.740685e+00 3.356380e+00 2.018304e+00 7.072902e-01 8.532051e-01 2.316726e+00 3.825044e+00 5.373555e+00 6.949001e+00 8.557557e+00 1.020943e+01 1.191527e+01 1.368526e+01 1.552910e+01 1.745627e+01 1.947611e+01 2.159798e+01 2.383124e+01 3.129974e+01 3.655209e+01 4.208530e+01 4.788970e+01 5.392832e+01 6.011749e+01 6.629790e+01 7.219934e+01 7.740441e+01 8.135705e+01 8.348936e+01 8.349063e+01 8.136137e+01 7.741283e+01 7.221263e+01 6.631635e+01 6.014121e+01 5.395763e+01 4.792534e+01 4.212840e+01 3.660412e+01 3.136244e+01 2.390977e+01 2.168302e+01 1.957162e+01 1.756641e+01 1.565865e+01 1.384013e+01 1.210320e+01 1.044079e+01 8.846327e+00 7.313786e+00 5.837662e+00 4.413788e+00 3.042154e+00 1.744917e+00 5.771532e-01 4.126308e-01 1.700117e+00 3.314824e+00 4.900137e+00 6.475312e+00 8.062613e+00 9.679942e+00 1.134083e+01 1.305631e+01 1.483570e+01 1.668715e+01 1.861797e+01 2.063471e+01 2.274301e+01 3.328763e+01 3.828353e+01 4.343332e+01 4.867821e+01 5.391812e+01 5.899551e+01 6.368023e+01 6.766640e+01 7.060115e+01 7.216365e+01 7.216603e+01 7.060856e+01 6.767952e+01 6.369986e+01 5.902244e+01 5.395317e+01 4.872239e+01 4.348790e+01 3.835004e+01 3.336779e+01 2.285636e+01 2.075808e+01 1.875458e+01 1.684040e+01 1.500964e+01 1.325626e+01 1.157427e+01 9.957807e+00 8.401206e+00 6.898986e+00 5.445992e+00 4.036655e+00 2.665152e+00 1.327997e+00 3.091233e-01 1.099245e+00 2.842476e+00 4.437242e+00 5.988193e+00 7.537068e+00 9.106453e+00 1.071154e+01 1.236328e+01 1.407009e+01 1.583854e+01 1.767379e+01 1.957966e+01 2.155846e+01 2.361058e+01 3.432329e+01 3.887508e+01 4.342344e+01 4.786898e+01 5.207224e+01 5.585028e+01 5.898381e+01 6.124268e+01 6.243035e+01 6.243352e+01 6.125244e+01 5.900081e+01 5.587548e+01 5.210683e+01 4.791436e+01 4.348121e+01 3.894707e+01 3.441148e+01 2.374424e+01 2.170340e+01 1.973822e+01 1.784816e+01 1.603096e+01 1.428325e+01 1.26