<VTKFile type="UnstructuredGrid" version="0.1" byte_order="LittleEndian">
   <UnstructuredGrid>
      <Piece  NumberOfPoints="3281"  NumberOfCells="3036">
         <Points>
            <DataArray type="Float32" NumberOfComponents="3" format="ascii">
-5.468750e-01 -2.343750e+00 0.000000e+00
-5.468750e-01 -2.421875e+00 0.000000e+00
-4.687500e-01 -2.421875e+00 0.000000e+00
-4.687500e-01 -2.343750e+00 0.000000e+00
-3.906250e-01 -2.421875e+00 0.000000e+00
-3.906250e-01 -2.343750e+00 0.000000e+00
-3.125000e-01 -2.421875e+00 0.000000e+00
-3.125000e-01 -2.343750e+00 0.000000e+00
-2.343750e-01 -2.421875e+00 0.000000e+00
-2.343750e-01 -2.343750e+00 0.000000e+00
-1.562500e-01 -2.421875e+00 0.000000e+00
-1.562500e-01 -2.343750e+00 0.000000e+00
-7.812500e-01 -2.265625e+00 0.000000e+00
-7.812500e-01 -2.343750e+00 0.000000e+00
-7.031250e-01 -2.343750e+00 0.000000e+00
-7.031250e-01 -2.265625e+00 0.000000e+00
-6.250000e-01 -2.343750e+00 0.000000e+00
-6.250000e-01 -2.265625e+00 0.000000e+00
-5.468750e-01 -2.265625e+00 0.000000e+00
-4.687500e-01 -2.265625e+00 0.000000e+00
-3.906250e-01 -2.265625e+00 0.000000e+00
-3.125000e-01 -2.265625e+00 0.000000e+00
-2.343750e-01 -2.265625e+00 0.000000e+00
-1.562500e-01 -2.265625e+00 0.000000e+00
-7.812500e-02 -2.343750e+00 0.000000e+00
-7.812500e-02 -2.265625e+00 0.000000e+00
0.000000e+00 -2.343750e+00 0.000000e+00
0.000000e+00 -2.265625e+00 0.000000e+00
3.125000e-01 -2.265625e+00 0.000000e+00
3.125000e-01 -2.343750e+00 0.000000e+00
3.906250e-01 -2.343750e+00 0.000000e+00
3.906250e-01 -2.265625e+00 0.000000e+00
4.687500e-01 -2.343750e+00 0.000000e+00
4.687500e-01 -2.265625e+00 0.000000e+00
5.468750e-01 -2.343750e+00 0.000000e+00
5.468750e-01 -2.265625e+00 0.000000e+00
6.250000e-01 -2.343750e+00 0.000000e+00
6.250000e-01 -2.265625e+00 0.000000e+00
7.031250e-01 -2.343750e+00 0.000000e+00
7.031250e-01 -2.265625e+00 0.000000e+00
7.812500e-01 -2.343750e+00 0.000000e+00
7.812500e-01 -2.265625e+00 0.000000e+00
-9.375000e-01 -2.187500e+00 0.000000e+00
-9.375000e-01 -2.265625e+00 0.000000e+00
-8.593750e-01 -2.265625e+00 0.000000e+00
-8.593750e-01 -2.187500e+00 0.000000e+00
-7.812500e-01 -2.187500e+00 0.000000e+00
-7.031250e-01 -2.187500e+00 0.000000e+00
-6.250000e-01 -2.187500e+00 0.000000e+00
-5.468750e-01 -2.187500e+00 0.000000e+00
-4.687500e-01 -2.187500e+00 0.000000e+00
-3.906250e-01 -2.187500e+00 0.000000e+00
-3.125000e-01 -2.187500e+00 0.000000e+00
-2.343750e-01 -2.187500e+00 0.000000e+00
-1.562500e-01 -2.187500e+00 0.000000e+00
-7.812500e-02 -2.187500e+00 0.000000e+00
0.000000e+00 -2.187500e+00 0.000000e+00
7.812500e-02 -2.265625e+00 0.000000e+00
7.812500e-02 -2.187500e+00 0.000000e+00
1.562500e-01 -2.265625e+00 0.000000e+00
1.562500e-01 -2.187500e+00 0.000000e+00
2.343750e-01 -2.265625e+00 0.000000e+00
2.343750e-01 -2.187500e+00 0.000000e+00
3.125000e-01 -2.187500e+00 0.000000e+00
3.906250e-01 -2.187500e+00 0.000000e+00
4.687500e-01 -2.187500e+00 0.000000e+00
5.468750e-01 -2.187500e+00 0.000000e+00
6.250000e-01 -2.187500e+00 0.000000e+00
7.031250e-01 -2.187500e+00 0.000000e+00
7.812500e-01 -2.187500e+00 0.000000e+00
8.593750e-01 -2.265625e+00 0.000000e+00
8.593750e-01 -2.187500e+00 0.000000e+00
-1.093750e+00 -2.109375e+00 0.000000e+00
-1.093750e+00 -2.187500e+00 0.000000e+00
-1.015625e+00 -2.187500e+00 0.000000e+00
-1.015625e+00 -2.109375e+00 0.000000e+00
-9.375000e-01 -2.109375e+00 0.000000e+00
-8.593750e-01 -2.109375e+00 0.000000e+00
-7.812500e-01 -2.109375e+00 0.000000e+00
-7.031250e-01 -2.109375e+00 0.000000e+00
-6.250000e-01 -2.109375e+00 0.000000e+00
-5.468750e-01 -2.109375e+00 0.000000e+00
-4.687500e-01 -2.109375e+00 0.000000e+00
-3.906250e-01 -2.109375e+00 0.000000e+00
-3.125000e-01 -2.109375e+00 0.000000e+00
-2.343750e-01 -2.109375e+00 0.000000e+00
-1.562500e-01 -2.109375e+00 0.000000e+00
-7.812500e-02 -2.109375e+00 0.000000e+00
0.000000e+00 -2.109375e+00 0.000000e+00
7.812500e-02 -2.109375e+00 0.000000e+00
1.562500e-01 -2.109375e+00 0.000000e+00
2.343750e-01 -2.109375e+00 0.000000e+00
3.125000e-01 -2.109375e+00 0.000000e+00
3.906250e-01 -2.109375e+00 0.000000e+00
4.687500e-01 -2.109375e+00 0.000000e+00
5.468750e-01 -2.109375e+00 0.000000e+00
6.250000e-01 -2.109375e+00 0.000000e+00
7.031250e-01 -2.109375e+00 0.000000e+00
7.812500e-01 -2.109375e+00 0.000000e+00
8.593750e-01 -2.109375e+00 0.000000e+00
9.375000e-01 -2.187500e+00 0.000000e+00
9.375000e-01 -2.109375e+00 0.000000e+00
-1.250000e+00 -2.031250e+00 0.000000e+00
-1.250000e+00 -2.109375e+00 0.000000e+00
-1.171875e+00 -2.109375e+00 0.000000e+00
-1.171875e+00 -2.031250e+00 0.000000e+00
-1.093750e+00 -2.031250e+00 0.000000e+00
-1.015625e+00 -2.031250e+00 0.000000e+00
-9.375000e-01 -2.031250e+00 0.000000e+00
-8.593750e-01 -2.031250e+00 0.000000e+00
-7.812500e-01 -2.031250e+00 0.000000e+00
-7.031250e-01 -2.031250e+00 0.000000e+00
-6.250000e-01 -2.031250e+00 0.000000e+00
-5.468750e-01 -2.031250e+00 0.000000e+00
-4.687500e-01 -2.031250e+00 0.000000e+00
-3.906250e-01 -2.031250e+00 0.000000e+00
-3.125000e-01 -2.031250e+00 0.000000e+00
-2.343750e-01 -2.031250e+00 0.000000e+00
-1.562500e-01 -2.031250e+00 0.000000e+00
-7.812500e-02 -2.031250e+00 0.000000e+00
0.000000e+00 -2.031250e+00 0.000000e+00
7.812500e-02 -2.031250e+00 0.000000e+00
1.562500e-01 -2.031250e+00 0.000000e+00
2.343750e-01 -2.031250e+00 0.000000e+00
3.125000e-01 -2.031250e+00 0.000000e+00
3.906250e-01 -2.031250e+00 0.000000e+00
4.687500e-01 -2.031250e+00 0.000000e+00
5.468750e-01 -2.031250e+00 0.000000e+00
6.250000e-01 -2.031250e+00 0.000000e+00
7.031250e-01 -2.031250e+00 0.000000e+00
7.812500e-01 -2.031250e+00 0.000000e+00
8.593750e-01 -2.031250e+00 0.000000e+00
9.375000e-01 -2.031250e+00 0.000000e+00
1.015625e+00 -2.109375e+00 0.000000e+00
1.015625e+00 -2.031250e+00 0.000000e+00
-1.328125e+00 -1.953125e+00 0.000000e+00
-1.328125e+00 -2.031250e+00 0.000000e+00
-1.250000e+00 -1.953125e+00 0.000000e+00
-1.171875e+00 -1.953125e+00 0.000000e+00
-1.093750e+00 -1.953125e+00 0.000000e+00
-1.015625e+00 -1.953125e+00 0.000000e+00
-9.375000e-01 -1.953125e+00 0.000000e+00
-8.593750e-01 -1.953125e+00 0.000000e+00
-7.812500e-01 -1.953125e+00 0.000000e+00
-7.031250e-01 -1.953125e+00 0.000000e+00
-6.250000e-01 -1.953125e+00 0.000000e+00
-5.468750e-01 -1.953125e+00 0.000000e+00
-4.687500e-01 -1.953125e+00 0.000000e+00
-3.906250e-01 -1.953125e+00 0.000000e+00
-3.125000e-01 -1.953125e+00 0.000000e+00
-2.343750e-01 -1.953125e+00 0.000000e+00
-1.562500e-01 -1.953125e+00 0.000000e+00
-7.812500e-02 -1.953125e+00 0.000000e+00
0.000000e+00 -1.953125e+00 0.000000e+00
7.812500e-02 -1.953125e+00 0.000000e+00
1.562500e-01 -1.953125e+00 0.000000e+00
2.343750e-01 -1.953125e+00 0.000000e+00
3.125000e-01 -1.953125e+00 0.000000e+00
3.906250e-01 -1.953125e+00 0.000000e+00
4.687500e-01 -1.953125e+00 0.000000e+00
5.468750e-01 -1.953125e+00 0.000000e+00
6.250000e-01 -1.953125e+00 0.000000e+00
7.031250e-01 -1.953125e+00 0.000000e+00
7.812500e-01 -1.953125e+00 0.000000e+00
8.593750e-01 -1.953125e+00 0.000000e+00
9.375000e-01 -1.953125e+00 0.000000e+00
1.015625e+00 -1.953125e+00 0.000000e+00
1.093750e+00 -2.031250e+00 0.000000e+00
1.093750e+00 -1.953125e+00 0.000000e+00
1.171875e+00 -2.031250e+00 0.000000e+00
1.171875e+00 -1.953125e+00 0.000000e+00
1.250000e+00 -2.031250e+00 0.000000e+00
1.250000e+00 -1.953125e+00 0.000000e+00
-1.484375e+00 -1.875000e+00 0.000000e+00
-1.484375e+00 -1.953125e+00 0.000000e+00
-1.406250e+00 -1.953125e+00 0.000000e+00
-1.406250e+00 -1.875000e+00 0.000000e+00
-1.328125e+00 -1.875000e+00 0.000000e+00
-1.250000e+00 -1.875000e+00 0.000000e+00
-1.171875e+00 -1.875000e+00 0.000000e+00
-1.093750e+00 -1.875000e+00 0.000000e+00
-1.015625e+00 -1.875000e+00 0.000000e+00
-9.375000e-01 -1.875000e+00 0.000000e+00
-8.593750e-01 -1.875000e+00 0.000000e+00
-7.812500e-01 -1.875000e+00 0.000000e+00
-7.031250e-01 -1.875000e+00 0.000000e+00
-6.250000e-01 -1.875000e+00 0.000000e+00
-5.468750e-01 -1.875000e+00 0.000000e+00
-4.687500e-01 -1.875000e+00 0.000000e+00
-3.906250e-01 -1.875000e+00 0.000000e+00
-3.125000e-01 -1.875000e+00 0.000000e+00
-2.343750e-01 -1.875000e+00 0.000000e+00
-1.562500e-01 -1.875000e+00 0.000000e+00
-7.812500e-02 -1.875000e+00 0.000000e+00
0.000000e+00 -1.875000e+00 0.000000e+00
7.812500e-02 -1.875000e+00 0.000000e+00
1.562500e-01 -1.875000e+00 0.000000e+00
2.343750e-01 -1.875000e+00 0.000000e+00
3.125000e-01 -1.875000e+00 0.000000e+00
3.906250e-01 -1.875000e+00 0.000000e+00
4.687500e-01 -1.875000e+00 0.000000e+00
5.468750e-01 -1.875000e+00 0.000000e+00
6.250000e-01 -1.875000e+00 0.000000e+00
7.031250e-01 -1.875000e+00 0.000000e+00
7.812500e-01 -1.875000e+00 0.000000e+00
8.593750e-01 -1.875000e+00 0.000000e+00
9.375000e-01 -1.875000e+00 0.000000e+00
1.015625e+00 -1.875000e+00 0.000000e+00
1.093750e+00 -1.875000e+00 0.000000e+00
1.171875e+00 -1.875000e+00 0.000000e+00
1.250000e+00 -1.875000e+00 0.000000e+00
1.328125e+00 -1.953125e+00 0.000000e+00
1.328125e+00 -1.875000e+00 0.000000e+00
1.406250e+00 -1.953125e+00 0.000000e+00
1.406250e+00 -1.875000e+00 0.000000e+00
1.484375e+00 -1.953125e+00 0.000000e+00
1.484375e+00 -1.875000e+00 0.000000e+00
-1.562500e+00 -1.796875e+00 0.000000e+00
-1.562500e+00 -1.875000e+00 0.000000e+00
-1.484375e+00 -1.796875e+00 0.000000e+00
-1.406250e+00 -1.796875e+00 0.000000e+00
-1.328125e+00 -1.796875e+00 0.000000e+00
-1.250000e+00 -1.796875e+00 0.000000e+00
-1.171875e+00 -1.796875e+00 0.000000e+00
-1.093750e+00 -1.796875e+00 0.000000e+00
-1.015625e+00 -1.796875e+00 0.000000e+00
-9.375000e-01 -1.796875e+00 0.000000e+00
-8.593750e-01 -1.796875e+00 0.000000e+00
-7.812500e-01 -1.796875e+00 0.000000e+00
-7.031250e-01 -1.796875e+00 0.000000e+00
-6.250000e-01 -1.796875e+00 0.000000e+00
-5.468750e-01 -1.796875e+00 0.000000e+00
-4.687500e-01 -1.796875e+00 0.000000e+00
-3.906250e-01 -1.796875e+00 0.000000e+00
-3.125000e-01 -1.796875e+00 0.000000e+00
-2.343750e-01 -1.796875e+00 0.000000e+00
-1.562500e-01 -1.796875e+00 0.000000e+00
-7.812500e-02 -1.796875e+00 0.000000e+00
0.000000e+00 -1.796875e+00 0.000000e+00
7.812500e-02 -1.796875e+00 0.000000e+00
[...]
         <CellData Scalars="count">
            <DataArray type="Float64" Name="solution" format="ascii">
2.093340e-01 3.732841e-01 4.124591e-01 3.813968e-01 2.169585e-01 2.376397e-01 4.612822e-01 6.162408e-01 9.229600e-01 1.156738e+00 1.234773e+00 1.187219e+00 9.663169e-01 6.325914e-01 3.256570e-01 2.567419e-01 4.355979e-01 4.598542e-01 4.275532e-01 3.485465e-01 1.777609e-01 2.739983e-01 5.846090e-01 9.998230e-01 1.370081e+00 1.643896e+00 1.892480e+00 2.081634e+00 2.171913e+00 2.150771e+00 2.013043e+00 1.771166e+00 1.394787e+00 9.808375e-01 8.698713e-01 8.447563e-01 8.922263e-01 1.169306e+00 1.353549e+00 1.360292e+00 1.261681e+00 1.066346e+00 7.329973e-01 2.801986e-01 2.823912e-01 6.185222e-01 1.101728e+00 1.582749e+00 1.998010e+00 2.365228e+00 2.672716e+00 2.924448e+00 3.112062e+00 3.218924e+00 3.236121e+00 3.162554e+00 3.006082e+00 2.786178e+00 2.567760e+00 2.432039e+00 2.368935e+00 2.366883e+00 2.415591e+00 2.431220e+00 2.357051e+00 2.185503e+00 1.911230e+00 1.517670e+00 9.768890e-01 3.554758e-01 2.635317e-01 6.030026e-01 1.115879e+00 1.649232e+00 2.142895e+00 2.614758e+00 3.044465e+00 3.425458e+00 3.751985e+00 4.020398e+00 4.224492e+00 4.357042e+00 4.413652e+00 4.395904e+00 4.312972e+00 4.184783e+00 4.045758e+00 3.926529e+00 3.836364e+00 3.768894e+00 3.704656e+00 3.609158e+00 3.449677e+00 3.209123e+00 2.876512e+00 2.439796e+00 1.888633e+00 1.200147e+00 4.412777e-01 3.669674e-01 1.003555e+00 1.590828e+00 2.143138e+00 2.686570e+00 3.204821e+00 3.692006e+00 4.139608e+00 4.540485e+00 4.888987e+00 5.180135e+00 5.409203e+00 5.572009e+00 5.666857e+00 5.696136e+00 5.667665e+00 5.595459e+00 5.497632e+00 5.390195e+00 5.279699e+00 5.162746e+00 5.027097e+00 4.853820e+00 4.624319e+00 4.324630e+00 3.945143e+00 3.479038e+00 2.920948e+00 2.270954e+00 1.519123e+00 8.593537e-01 5.781440e-01 2.806366e-01 2.632319e-01 6.293681e-01 1.246902e+00 1.944412e+00 2.578824e+00 3.177899e+00 3.751502e+00 4.297087e+00 4.809204e+00 5.281615e+00 5.708137e+00 6.083236e+00 6.402086e+00 6.660543e+00 6.855664e+00 6.986528e+00 7.055172e+00 7.067124e+00 7.031129e+00 6.957571e+00 6.855126e+00 6.727924e+00 6.574238e+00 6.387012e+00 6.155857e+00 5.869859e+00 5.520205e+00 5.101069e+00 4.609829e+00 4.048670e+00 3.426975e+00 2.777612e+00 2.175396e+00 1.665075e+00 1.135900e+00 6.388905e-01 4.005959e-01 1.744201e-01 3.358671e-01 9.714063e-01 1.611474e+00 2.263564e+00 2.939192e+00 3.600580e+00 4.235958e+00 4.844258e+00 5.422565e+00 5.966195e+00 6.469644e+00 6.927300e+00 7.333862e+00 7.684591e+00 7.975573e+00 8.204068e+00 8.369021e+00 8.471493e+00 8.514808e+00 8.504165e+00 8.445490e+00 8.343824e+00 8.201733e+00 8.018602e+00 7.790870e+00 7.513094e+00 7.179575e+00 6.785829e+00 6.329652e+00 5.812089e+00 5.238660e+00 4.622478e+00 3.986833e+00 3.363673e+00 2.765249e+00 2.182409e+00 1.633067e+00 1.140254e+00 6.420483e-01 1.800312e-01 3.591416e-01 1.076273e+00 1.829691e+00 2.545098e+00 3.251999e+00 3.956409e+00 4.648753e+00 5.320616e+00 5.966723e+00 6.582614e+00 7.163340e+00 7.703523e+00 8.197659e+00 8.640443e+00 9.027043e+00 9.353368e+00 9.616378e+00 9.814388e+00 9.947299e+00 1.001660e+01 1.002506e+01 9.975986e+00 9.872379e+00 9.716059e+00 9.507256e+00 9.244713e+00 8.926302e+00 8.549908e+00 8.114386e+00 7.620409e+00 7.071231e+00 6.473655e+00 5.838748e+00 5.181993e+00 4.518716e+00 3.857925e+00 3.200556e+00 2.547776e+00 1.888189e+00 1.190845e+00 4.314168e-01 3.671480e-01 1.117822e+00 1.930730e+00 2.715948e+00 3.484461e+00 4.240335e+00 4.986093e+00 5.718194e+00 6.431046e+00 7.119299e+00 7.777746e+00 8.401013e+00 8.983483e+00 9.519448e+00 1.000333e+01 1.042994e+01 1.079471e+01 1.109396e+01 1.132513e+01 1.148694e+01 1.157935e+01 1.160342e+01 1.156081e+01 1.145337e+01 1.128261e+01 1.104949e+01 1.075443e+01 1.039766e+01 9.979670e+00 9.501836e+00 8.966922e+00 8.379575e+00 7.746662e+00 7.077322e+00 6.381945e+00 5.670063e+00 4.947150e+00 4.213647e+00 3.462901e+00 2.676062e+00 1.807574e+00 7.456108e-01 3.654489e-01 1.126311e+00 1.968525e+00 2.799076e+00 3.622421e+00 4.435032e+00 5.237656e+00 6.029276e+00 6.806935e+00 7.566116e+00 8.301639e+00 9.008014e+00 9.679464e+00 1.030997e+01 1.089338e+01 1.142361e+01 1.189483e+01 1.230176e+01 1.263983e+01 1.290545e+01 1.309614e+01 1.321057e+01 1.324847e+01 1.321041e+01 1.309757e+01 1.291142e+01 1.265362e+01 1.232592e+01 1.193037e+01 1.146951e+01 1.094668e+01 1.036625e+01 9.733864e+00 9.056403e+00 8.341719e+00 7.597815e+00 6.831374e+00 6.046223e+00 5.241660e+00 4.410795e+00 3.536313e+00 2.586250e+00 1.503987e+00 4.752263e-01 3.541553e-01 1.107452e+00 1.959349e+00 2.815868e+00 3.678222e+00 4.539027e+00 5.395651e+00 6.245510e+00 7.086157e+00 7.914078e+00 8.724795e+00 9.513080e+00 1.027316e+01 1.099884e+01 1.168356e+01 1.232054e+01 1.290296e+01 1.342415e+01 1.387782e+01 1.425833e+01 1.456090e+01 1.478179e+01 1.491847e+01 1.496956e+01 1.493485e+01 1.481509e+01 1.461192e+01 1.432768e+01 1.396534e+01 1.352852e+01 1.302151e+01 1.244933e+01 1.181777e+01 1.113340e+01 1.040339e+01 9.635156e+00 8.835690e+00 8.010715e+00 7.163615e+00 6.294541e+00 5.399337e+00 4.469357e+00 3.492510e+00 2.469804e+00 1.418680e+00 4.685778e-01 3.280762e-01 1.056237e+00 1.903671e+00 2.772802e+00 3.660853e+00 4.558269e+00 5.460367e+00 6.362853e+00 7.262431e+00 8.155585e+00 9.038303e+00 9.905819e+00 1.075265e+01 1.157266e+01 1.235913e+01 1.310487e+01 1.380229e+01 1.444362e+01 1.502109e+01 1.552720e+01 1.595495e+01 1.629821e+01 1.655187e+01 1.671214e+01 1.677664e+01 1.674446e+01 1.661615e+01 1.639360e+01 1.607993e+01 1.567935e+01 1.519699e+01 1.463882e+01 1.401148e+01 1.332221e+01 1.257863e+01 1.178856e+01 1.095960e+01 1.009870e+01 9.211612e+00 8.302316e+00 7.372623e+00 6.422223e+00 5.449428e+00 4.454731e+00 3.445371e+00 2.443166e+00 1.461973e+00 6.850913e-01 2.748203e-01 2.547322e-01 9.440942e-01 1.786525e+00 2.664543e+00 3.570882e+00 4.495829e+00 5.434252e+00 6.381266e+00 7.333000e+00 8.285655e+00 9.235328e+00 1.017761e+01 1.110742e+01 1.201895e+01 1.290561e+01 1.376011e+01 1.457446e+01 1.534013e+01 1.604818e+01 1.668949e+01 1.725505e+01 1.773626e+01 1.812533e+01 1.841558e+01 1.860183e+01 1.868063e+01 1.865043e+01 1.851164e+01 1.826657e+01 1.791926e+01 1.747527e+01 1.694140e+01 1.632538e+01 1.563563e+01 1.488097e+01 1.407034e+01 1.321251e+01 1.231577e+01 1.138761e+01 1.043436e+01 9.461009e+00 8.471196e+00 7.467573e+00 6.453061e+00 5.432880e+00 4.418172e+00 3.427732e+00 2.497497e+00 1.684912e+00 9.868864e-01 4.322598e-01 1.404286e-01 6.054413e-01 1.556976e+00 2.471308e+00 3.400521e+00 4.349759e+00 5.317879e+00 6.301594e+00 7.297548e+00 8.302171e+00 9.311787e+00 1.032235e+01 1.132925e+01 1.232718e+01 1.330998e+01 1.427062e+01 1.520113e+01 1.609266e+01 1.693555e+01 1.771949e+01 1.843372e+01 1.906738e+01 1.960992e+01 2.005150e+01 2.038358e+01 2.059930e+01 2.069396e+01 2.066532e+01 2.051371e+01 2.024203e+01 1.985548e+01 1.936125e+01 1.876806e+01 1.808573e+01 1.732471e+01 1.649568e+01 1.560916e+01 1.467523e+01 1.370318e+01 1.270136e+01 1.167695e+01 1.063600e+01 9.583560e+00 8.524244e+00 7.463146e+00 6.407383e+00 5.367649e+00 4.360357e+00 3.407590e+00 2.533187e+00 1.746663e+00 1.051758e+00 4.019683e-01 3.470207e-01 1.188675e+00 2.171911e+00 3.138585e+00 4.115093e+00 5.109835e+00 6.124170e+00 7.156748e+00 8.205112e+00 9.266300e+00 1.033688e+01 1.141290e+01 1.248973e+01 1.356191e+01 1.462303e+01 1.566560e+01 1.668099e+01 1.765938e+01 1.858986e+01 1.946048e+01 2.025855e+01 2.097097e+01 2.158472e+01 2.208748e+01 2.246829e+01 2.271823e+01 2.283103e+01 2.280360e+01 2.263625e+01 2.233268e+01 2.189963e+01 2.134635e+01 2.068397e+01 1.992481e+01 1.908178e+01 1.816779e+01 1.719528e+01 1.617589e+01 1.512018e+01 1.403750e+01 1.293593e+01 1.182238e+01 1.070288e+01 9.582993e+00 8.468579e+00 7.366622e+00 6.286157e+00 5.238555e+00 4.236978e+00 3.292768e+00 2.411327e+00 1.590195e+00 8.111119e-01 1.998402e-01 2.444181e-01 9.397497e-01 1.837214e+00 2.798995e+00 3.793570e+00 4.810387e+00 5.849891e+00 6.912103e+00 7.996019e+00 9.099792e+00 1.022094e+01 1.135642e+01 1.250250e+01 1.365469e+01 1.480753e+01 1.595444e+01 1.708757e+01 1.819764e+01 1.927386e+01 2.030390e+01 2.127396e+01 2.216906e+01 2.297333e+01 2.367074e+01 2.424576e+01 2.468433e+01 2.497482e+01 2.510892e+01 2.508237e+01 2.489552e+01 2.455324e+01 2.406433e+01 2.344076e+01 2.269674e+01 2.184776e+01 2.090974e+01 1.989828e+01 1.882810e+01 1.771267e+01 1.656395e+01 1.539233e+01 1.420672e+01 1.301465e+01 1.182262e+01 1.063647e+01 9.461877e+00 8.304853e+00 7.172046e+00 6.070698e+00 5.007720e+00 3.988187e+00 3.013959e+00 2.084257e+00 1.205847e+00 4.030038e-01 5.507986e-01 1.471133e+00 2.412628e+00 3.401203e+00 4.426781e+00 5.482901e+00 6.567033e+00 7.678193e+00 8.815336e+00 9.976994e+00 1.116116e+01 1.236522e+01 1.358585e+01 1.481882e+01 1.605886e+01 1.729940e+01 1.853235e+01 1.974789e+01 2.093427e+01 2.207768e+01 2.316228e+01 2.417033e+01 2.508266e+01 2.587937e+01 2.654090e+01 2.704901e+01 2.738846e+01 2.754824e+01 2.752224e+01 2.731086e+01 2.692094e+01 2.636407e+01 2.565583e+01 2.481455e+01 2.385971e+01 2.281098e+01 2.168726e+01 2.050593e+01 1.928248e+01 1.803034e+01 1.676094e+01 1.548378e+01 1.420676e+01 1.293645e+01 1.167844e+01 1.043774e+01 9.218965e+00 8.026489e+00 6.864114e+00 5.734432e+00 4.637874e+00 3.572132e+00 2.533294e+00 1.518564e+00 5.273224e-01 2.398322e-01 9.896862e-01 1.949434e+00 2.939872e+00 3.967040e+00 5.030340e+00 6.127540e+00 7.257126e+00 8.418219e+00 9.610050e+00 1.083159e+01 1.208136e+01 1.335732e+01 1.465666e+01 1.597566e+01 1.730943e+01 1.865165e+01 1.999422e+01 2.132697e+01 2.263731e+01 2.390997e+01 2.512688e+01 2.626721e+01 2.730768e+01 2.704596e+01 2.596539e+01 2.478696e+01 2.353353e+01 2.222553e+01 2.088062e+01 1.951369e+01 1.813701e+01 1.676048e+01 1.539201e+01 1.403787e+01 1.270307e+01 1.139162e+01 1.010671e+01 8.850626e+00 7.624479e+00 6.427530e+00 5.256330e+00 4.103791e+00 2.958652e+00 1.806652e+00 6.360332e-01 4.792271e-01 1.407611e+00 2.397422e+00 3.429164e+00 4.496595e+00 5.600174e+00 6.739915e+00 7.915715e+00 9.127463e+00 1.037498e+01 1.165785e+01 1.297526e+01 1.432588e+01 1.570762e+01 1.711749e+01 1.855128e+01 2.000319e+01 2.146550e+01 2.292799e+01 2.437754e+01 2.579754e+01 2.716767e+01 3.374618e+01 3.516632e+01 3.614018e+01 3.662641e+01 3.660318e+01 3.607045e+01 3.505000e+01 3.358317e+01 2.683753e+01 2.543392e+01 2.398157e+01 2.250034e+01 2.100641e+01 1.951261e+01 1.802886e+01 1.656271e+01 1.511978e+01 1.370420e+01 1.231883e+01 1.096543e+01 9.644535e+00 8.355190e+00 7.094266e+00 5.855405e+00 4.627394e+00 3.391169e+00 2.115824e+00 7.624716e-01 6.682149e-01 1.756085e+00 2.808935e+00 3.882825e+00 4.989956e+00 6.133810e+00 7.316245e+00 8.538342e+00 9.800898e+00 1.110450e+01 1.244948e+01 1.383585e+01 1.526315e+01 1.673025e+01 1.823516e+01 1.977466e+01 2.134395e+01 2.293609e+01 2.454139e+01 2.614669e+01 2.773437e+01 3.474906e+01 3.724389e+01 3.937790e+01 4.106710e+01 4.223556e+01 4.282506e+01 4.280391e+01 4.217201e+01 4.096089e+01 3.922867e+01 3.705126e+01 3.451271e+01 2.738245e+01 2.576588e+01 2.413217e+01 2.249851e+01 2.087776e+01 1.927933e+01 1.770993e+01 1.617415e+01 1.467495e+01 1.321390e+01 1.179139e+01 1.040654e+01 9.056966e+00 7.738139e+00 6.442434e+00 5.157066e+00 3.860290e+00 2.508099e+00 9.884867e-01 2.479815e-01 1.057893e+00 2.114060e+00 3.193961e+00 4.302720e+00 5.446266e+00 6.628785e+00 7.852863e+00 9.120482e+00 1.043325e+01 1.179257e+01 1.319964e+01 1.465540e+01 1.616046e+01 1.771488e+01 1.931796e+01 2.096792e+01 2.266140e+01 2.439292e+01 2.615409e+01 3.676313e+01 3.998002e+01 4.291373e+01 4.545567e+01 4.749163e+01 4.891447e+01 4.963980e+01 4.962083e+01 4.885737e+01 4.739589e+01 4.532061e+01 4.273863e+01 3.976425e+01 3.650624e+01 2.576325e+01 2.397714e+01 2.222014e+01 2.050042e+01 1.882325e+01 1.719174e+01 1.560734e+01 1.407021e+01 1.257943e+01 1.113295e+01 9.727484e+00 8.358121e+00 7.017644e+00 5.695539e+00 4.375549e+00 3.034173e+00 1.638755e+00 4.643990e-01 4.678087e-01 1.410822e+00 2.452755e+00 3.550395e+00 4.687161e+00 5.863464e+00 7.082079e+00 8.345893e+00 9.657436e+00 1.101903e+01 1.243286e+01 1.390104e+01 1.542558e+01 1.700829e+01 1.865066e+01 2.035364e+01 2.211730e+01 2.394034e+01 2.581948e+01 2.774856e+01 3.383466e+01 3.781839e+01 4.173423e+01 4.549174e+01 4.897429e+01 5.204049e+01 5.453308e+01 5.629730e+01 5.720688e+01 5.719028e+01 5.624718e+01 5.444854e+01 5.192033e+01 4.881735e+01 4.529702e+01 4.150106e+01 3.754634e+01 3.352352e+01 2.737635e+01 2.542602e+01 2.352477e+01 2.167860e+01 1.989065e+01 1.816200e+01 1.649227e+01 1.488002e+01 1.332297e+01 1.181808e+01 1.036154e+01 8.948646e+00 7.573729e+00 6.230124e+00 4.911521e+00 3.615913e+00 2.367991e+00 1.228432e+00 3.537734e-01 5.805983e-01 1.654124e+00 2.745001e+00 3.869191e+00 5.032425e+00 6.238267e+00 7.490127e+00 8.791153e+00 1.014432e+01 1.155255e+01 1.301878e+01 1.454606e+01 1.613752e+01 1.779636e+01 1.952570e+01 2.132844e+01 2.320696e+01 2.516270e+01 2.719547e+01 3.782402e+01 4.234260e+01 4.685909e+01 5.127410e+01 5.544829e+01 5.919907e+01 6.230763e+01 6.454422e+01 6.571246e+01 6.569860e+01 6.450205e+01 6.223553e+01 5.909504e+01 5.531048e+01 5.110112e+01 4.665006e+01 4.209704e+01 3.754179e+01 2.682521e+01 2.477385e+01 2.279823e+01 2.089852e+01 1.907316e+01 1.731958e+01 1.563450e+01 1.401421e+01 1.245471e+01 1.095177e+01 9.501047e+00 8.098368e+00 6.740479e+00 5.426775e+00 4.163959e+00 2.971451e+00 1.886239e+00 9.381575e-01 2.382423e-01 7.107465e-01 1.876746e+00 3.002067e+00 4.148916e+00 5.335028e+00 6.567018e+00 7.848973e+00 9.184262e+00 1.057616e+01 1.202808e+01 1.354367e+01 1.512690e+01 1.678209e+01 1.851389e+01 2.032724e+01 2.222729e+01 2.421915e+01 2.630763e+01 3.677995e+01 4.174423e+01 4.686349e+01 5.207872e+01 5.728974e+01 6.233917e+01 6.699740e+01 7.095954e+01 7.387379e+01 7.541990e+01 7.540945e+01 7.384127e+01 7.090197e+01 6.691139e+01 6.222190e+01 5.713936e+01 5.189426e+01 4.664458e+01 4.149088e+01 3.649239e+01 2.594677e+01 2.384170e+01 2.183184e+01 1.991245e+01 1.807832e+01 1.632414e+01 1.464464e+01 1.303476e+01 1.148979e+01 1.000552e+01 8.578651e+00 7.207588e+00 5.893834e+00 4.643839e+00 3.470816e+00 2.391391e+00 1.417645e+00 5.183190e-01 2.371204e-01 1.041404e+00 2.116787e+00 3.231880e+00 4.388236e+00 5.591392e+00 6.845726e+00 8.154473e+00 9.520782e+00 1.094803e+01 1.244000e+01 1.400098e+01 1.563585e+01 1.735010e+01 1.914990e+01 2.104211e+01 2.303428e+01 2.513459e+01 2.735175e+01 3.477689e+01 3.999988e+01 4.550488e+01 5.128170e+01 5.729298e+01 6.345475e+01 6.960775e+01 7.548248e+01 8.066326e+01 8.459647e+01 8.671600e+01 8.671029e+01 8.457682e+01 8.062382e+01 7.541735e+01 6.951284e+01 6.332791e+01 5.713341e+01 5.108938e+01 4.528017e+01 3.974335e+01 3.448912e+01 2.702040e+01 2.478978e+01 2.267463e+01 2.066645e+01 1.875714e+01 1.693912e+01 1.520548e+01 1.355000e+01 1.196727e+01 1.045284e+01 9.003605e+00 7.618283e+00 6.298190e+00 5.047946e+00 3.875190e+00 2.788454e+00 1.791865e+00 8.794022e-01 2.049668e-01 4.270243e-01 1.309807e+00 2.323175e+00 3.420977e+00 4.580187e+00 5.796491e+00 7.069998e+00 8.402457e+00 9.796435e+00 1.125526e+01 1.278299e+01 1.438451e+01 1.606553e+01 1.783268e+01 1.969361e+01 2.165711e+01 2.373320e+01 2.593326e+01 3.727336e+01 4.293540e+01 4.898937e+01 5.545795e+01 6.234452e+01 6.960988e+01 7.713034e+01 8.463295e+01 8.459277e+01 7.705985e+01 6.950729e+01 6.220979e+01 5.529179e+01 4.879275e+01 4.270930e+01 3.701874e+01 2.562244e+01 2.341052e+01 2.132168e+01 1.934475e+01 1.746985e+01 1.568830e+01 1.399266e+01 1.237664e+01 1.083528e+01 9.365079e+00 7.964300e+00 6.633313e+00 5.374714e+00 4.192978e+00 3.093419e+00 2.081526e+00 1.169949e+00 3.822730e-01 4.891854e-01 1.433913e+00 2.454078e+00 3.550581e+00 4.715746e+00 5.944552e+00 7.235461e+00 8.589043e+00 1.000737e+01 1.149370e+01 1.305235e+01 1.468870e+01 1.640924e+01 1.822165e+01 2.013497e+01 2.215975e+01 2.430841e+01 2.659542e+01 3.378487e+01 3.940775e+01 4.547792e+01 5.205634e+01 5.920966e+01 6.700378e+01 7.548566e+01 8.463394e+01 9.729877e+01 9.730181e+01 9.730179e+01 9.729869e+01 8.458934e+01 7.540718e+01 6.689313e+01 5.906870e+01 5.188678e+01 4.528129e+01 3.918540e+01 3.353802e+01 2.631978e+01 2.402355e+01 2.186522e+01 1.983056e+01 1.790740e+01 1.608542e+01 1.435589e+01 1.271161e+01 1.114686e+01 9.657479e+00 8.240916e+00 6.896372e+00 5.624772e+00 4.428532e+00 3.311052e+00 2.276164e+00 1.326033e+00 4.519845e-01 5.069825e-01 1.476045e+00 2.507614e+00 3.612438e+00 4.788160e+00 6.030873e+00 7.338484e+00 8.711078e+00 1.015048e+01 1.165999e+01 1.324418e+01 1.490890e+01 1.666131e+01 1.850999e+01 2.046514e+01 2.253889e+01 2.474565e+01 2.710268e+01 3.520384e+01 4.109608e+01 4.751328e+01 5.454858e+01 6.231808e+01 7.096596e+01 8.066652e+01 9.730183e+01 9.730790e+01 9.731093e+01 9.731091e+01 9.730783e+01 9.730171e+01 8.061029e+01 7.087747e+01 6.220059e+01 5.440457e+01 4.734475e+01 4.090477e+01 3.499129e+01 2.686305e+01 2.449908e+01 2.228543e+01 2.020515e+01 1.824406e+01 1.639033e+01 1.463411e+01 1.296729e+01 1.138336e+01 9.877351e+00 8.445806e+00 7.086744e+00 5.799642e+00 4.585371e+00 3.446103e+00 2.384527e+00 1.400464e+00 4.804810e-01 4.943750e-01 1.450461e+00 2.486148e+00 3.603262e+00 4.794013e+00 6.052646e+00 7.376817e+00 8.766537e+00 1.022371e+01 1.175180e+01 1.335569e+01 1.504165e+01 1.681738e+01 1.869217e+01 2.067710e+01 2.278547e+01 2.503322e+01 2.743966e+01 3.617526e+01 4.226244e+01 4.893433e+01 5.631133e+01 6.455352e+01 7.387936e+01 8.459909e+01 9.729876e+01 9.730790e+01 9.731398e+01 9.731701e+01 9.731699e+01 9.731391e+01 9.730779e+01 9.729862e+01 8.456076e+01 7.380989e+01 6.445708e+01 5.619088e+01 4.879222e+01 4.210064e+01 3.599558e+01 2.723634e+01 2.482486e+01 2.257274e+01 2.046092e+01 1.847368e+01 1.659804e+01 1.482321e+01 1.314033e+01 1.154218e+01 1.002301e+01 8.578457e+00 7.205391e+00 5.901896e+00 4.667390e+00 3.503101e+00 2.413540e+00 1.405930e+00 4.786217e-01 4.354396e-01 1.338510e+00 2.382022e+00 3.521280e+00 4.732463e+00 6.009297e+00 7.349897e+00 8.754805e+00 1.022626e+01 1.176804e+01 1.338537e+01 1.508489e+01 1.687470e+01 1.876455e+01 2.076607e+01 2.289322e+01 2.516280e+01 2.759533e+01 3.665780e+01 4.284863e+01 4.965672e+01 5.721832e+01 6.571958e+01 7.542380e+01 8.671758e+01 9.730179e+01 9.731092e+01 9.731700e+01 9.732003e+01 9.732001e+01 9.731694e+01 9.731082e+01 9.730166e+01 8.669095e+01 7.536936e+01 6.564129e+01 5.711914e+01 4.953905e+01 4.271458e+01 3.650932e+01 2.742791e+01 2.499197e+01 2.272031e+01 2.059256e+01 1.859209e+01 1.670523e+01 1.492063e+01 1.322889e+01 1.162223e+01 1.009427e+01 8.639817e+00 7.254667e+00 5.935469e+00 4.679645e+00 3.486311e+00 2.359574e+00 1.324213e+00 4.297504e-01 2.431772e-01 1.071717e+00 2.190850e+00 3.368993e+00 4.606022e+00 5.902480e+00 7.258970e+00 8.676779e+00 1.015871e+01 1.170896e+01 1.333311e+01 1.503810e+01 1.683230e+01 1.872563e+01 2.072989e+01 2.285914e+01 2.513024e+01 2.756370e+01 3.662971e+01 4.282301e+01 4.963363e+01 5.719797e+01 6.570244e+01 7.541076e+01 8.671038e+01 9.730175e+01 9.731088e+01 9.731696e+01 9.731999e+01 9.731998e+01 9.731691e+01 9.731080e+01 9.730164e+01 8.668975e+01 7.536751e+01 6.563944e+01 5.711769e+01 4.953831e+01 4.271475e+01 3.651054e+01 2.743096e+01 2.499563e+01 2.272459e+01 2.059738e+01 1.859728e+01 1.671047e+01 1.492546e+01 1.323260e+01 1.162379e+01 1.009220e+01 8.632005e+00 7.238127e+00 5.905822e+00 4.630203e+00 3.405105e+00 2.223857e+00 1.086635e+00 2.439806e-01 7.284813e-01 1.944877e+00 3.158120e+00 4.419787e+00 5.735915e+00 7.106946e+00 8.534881e+00 1.002306e+01 1.157620e+01 1.320025e+01 1.490238e+01 1.669105e+01 1.857614e+01 2.056920e+01 2.268381e+01 2.493610e+01 2.734539e+01 3.609103e+01 4.218551e+01 4.886485e+01 5.624985e+01 6.450126e+01 7.383862e+01 8.457421e+01 9.729864e+01 9.730778e+01 9.731387e+01 9.731691e+01 9.731689e+01 9.731383e+01 9.730771e+01 9.729854e+01 8.455624e+01 7.380373e+01 6.445109e+01 5.618626e+01 4.878981e+01 4.210103e+01 3.599915e+01 2.724538e+01 2.483582e+01 2.258566e+01 2.047557e+01 1.848955e+01 1.661424e+01 1.483839e+01 1.315246e+01 1.154829e+01 1.001885e+01 8.557950e+00 7.159971e+00 5.819382e+00 4.529686e+00 3.281083e+00 2.051456e+00 7.748504e-01 5.612568e-01 1.673864e+00 2.893259e+00 4.179349e+00 5.514582e+00 6.898305e+00 8.332948e+00 9.82