<VTKFile type="UnstructuredGrid" version="0.1" byte_order="LittleEndian">
   <UnstructuredGrid>
      <Piece  NumberOfPoints="1192"  NumberOfCells="999">
         <Points>
            <DataArray type="Float32" NumberOfComponents="3" format="ascii">
-5.468750e-01 -1.250000e+00 0.000000e+00
-5.468750e-01 -1.328125e+00 0.000000e+00
-4.687500e-01 -1.328125e+00 0.000000e+00
-4.687500e-01 -1.250000e+00 0.000000e+00
-3.906250e-01 -1.328125e+00 0.000000e+00
-3.906250e-01 -1.250000e+00 0.000000e+00
-3.125000e-01 -1.328125e+00 0.000000e+00
-3.125000e-01 -1.250000e+00 0.000000e+00
3.125000e-01 -1.250000e+00 0.000000e+00
3.125000e-01 -1.328125e+00 0.000000e+00
3.906250e-01 -1.328125e+00 0.000000e+00
3.906250e-01 -1.250000e+00 0.000000e+00
4.687500e-01 -1.328125e+00 0.000000e+00
4.687500e-01 -1.250000e+00 0.000000e+00
5.468750e-01 -1.328125e+00 0.000000e+00
5.468750e-01 -1.250000e+00 0.000000e+00
-7.031250e-01 -1.171875e+00 0.000000e+00
-7.031250e-01 -1.250000e+00 0.000000e+00
-6.250000e-01 -1.250000e+00 0.000000e+00
-6.250000e-01 -1.171875e+00 0.000000e+00
-5.468750e-01 -1.171875e+00 0.000000e+00
-4.687500e-01 -1.171875e+00 0.000000e+00
-3.906250e-01 -1.171875e+00 0.000000e+00
-3.125000e-01 -1.171875e+00 0.000000e+00
-2.343750e-01 -1.250000e+00 0.000000e+00
-2.343750e-01 -1.171875e+00 0.000000e+00
7.812500e-02 -1.171875e+00 0.000000e+00
7.812500e-02 -1.250000e+00 0.000000e+00
1.562500e-01 -1.250000e+00 0.000000e+00
1.562500e-01 -1.171875e+00 0.000000e+00
2.343750e-01 -1.250000e+00 0.000000e+00
2.343750e-01 -1.171875e+00 0.000000e+00
3.125000e-01 -1.171875e+00 0.000000e+00
3.906250e-01 -1.171875e+00 0.000000e+00
4.687500e-01 -1.171875e+00 0.000000e+00
5.468750e-01 -1.171875e+00 0.000000e+00
6.250000e-01 -1.250000e+00 0.000000e+00
6.250000e-01 -1.171875e+00 0.000000e+00
-7.812500e-01 -1.093750e+00 0.000000e+00
-7.812500e-01 -1.171875e+00 0.000000e+00
-7.031250e-01 -1.093750e+00 0.000000e+00
-6.250000e-01 -1.093750e+00 0.000000e+00
-5.468750e-01 -1.093750e+00 0.000000e+00
-4.687500e-01 -1.093750e+00 0.000000e+00
-3.906250e-01 -1.093750e+00 0.000000e+00
-3.125000e-01 -1.093750e+00 0.000000e+00
-2.343750e-01 -1.093750e+00 0.000000e+00
-1.562500e-01 -1.171875e+00 0.000000e+00
-1.562500e-01 -1.093750e+00 0.000000e+00
-7.812500e-02 -1.171875e+00 0.000000e+00
-7.812500e-02 -1.093750e+00 0.000000e+00
0.000000e+00 -1.171875e+00 0.000000e+00
0.000000e+00 -1.093750e+00 0.000000e+00
7.812500e-02 -1.093750e+00 0.000000e+00
1.562500e-01 -1.093750e+00 0.000000e+00
2.343750e-01 -1.093750e+00 0.000000e+00
3.125000e-01 -1.093750e+00 0.000000e+00
3.906250e-01 -1.093750e+00 0.000000e+00
4.687500e-01 -1.093750e+00 0.000000e+00
5.468750e-01 -1.093750e+00 0.000000e+00
6.250000e-01 -1.093750e+00 0.000000e+00
-7.812500e-01 -1.015625e+00 0.000000e+00
-7.031250e-01 -1.015625e+00 0.000000e+00
-6.250000e-01 -1.015625e+00 0.000000e+00
-5.468750e-01 -1.015625e+00 0.000000e+00
-4.687500e-01 -1.015625e+00 0.000000e+00
-3.906250e-01 -1.015625e+00 0.000000e+00
-3.125000e-01 -1.015625e+00 0.000000e+00
-2.343750e-01 -1.015625e+00 0.000000e+00
-1.562500e-01 -1.015625e+00 0.000000e+00
-7.812500e-02 -1.015625e+00 0.000000e+00
0.000000e+00 -1.015625e+00 0.000000e+00
7.812500e-02 -1.015625e+00 0.000000e+00
1.562500e-01 -1.015625e+00 0.000000e+00
2.343750e-01 -1.015625e+00 0.000000e+00
3.125000e-01 -1.015625e+00 0.000000e+00
3.906250e-01 -1.015625e+00 0.000000e+00
4.687500e-01 -1.015625e+00 0.000000e+00
5.468750e-01 -1.015625e+00 0.000000e+00
6.250000e-01 -1.015625e+00 0.000000e+00
-8.593750e-01 -9.375000e-01 0.000000e+00
-8.593750e-01 -1.015625e+00 0.000000e+00
-7.812500e-01 -9.375000e-01 0.000000e+00
-7.031250e-01 -9.375000e-01 0.000000e+00
-6.250000e-01 -9.375000e-01 0.000000e+00
-5.468750e-01 -9.375000e-01 0.000000e+00
-4.687500e-01 -9.375000e-01 0.000000e+00
-3.906250e-01 -9.375000e-01 0.000000e+00
-3.125000e-01 -9.375000e-01 0.000000e+00
-2.343750e-01 -9.375000e-01 0.000000e+00
-1.562500e-01 -9.375000e-01 0.000000e+00
-7.812500e-02 -9.375000e-01 0.000000e+00
0.000000e+00 -9.375000e-01 0.000000e+00
7.812500e-02 -9.375000e-01 0.000000e+00
1.562500e-01 -9.375000e-01 0.000000e+00
2.343750e-01 -9.375000e-01 0.000000e+00
3.125000e-01 -9.375000e-01 0.000000e+00
3.906250e-01 -9.375000e-01 0.000000e+00
4.687500e-01 -9.375000e-01 0.000000e+00
5.468750e-01 -9.375000e-01 0.000000e+00
6.250000e-01 -9.375000e-01 0.000000e+00
-9.375000e-01 -8.593750e-01 0.000000e+00
-9.375000e-01 -9.375000e-01 0.000000e+00
-8.593750e-01 -8.593750e-01 0.000000e+00
-7.812500e-01 -8.593750e-01 0.000000e+00
-7.031250e-01 -8.593750e-01 0.000000e+00
-6.250000e-01 -8.593750e-01 0.000000e+00
-5.468750e-01 -8.593750e-01 0.000000e+00
-4.687500e-01 -8.593750e-01 0.000000e+00
-3.906250e-01 -8.593750e-01 0.000000e+00
-3.125000e-01 -8.593750e-01 0.000000e+00
-2.343750e-01 -8.593750e-01 0.000000e+00
-1.562500e-01 -8.593750e-01 0.000000e+00
-7.812500e-02 -8.593750e-01 0.000000e+00
0.000000e+00 -8.593750e-01 0.000000e+00
7.812500e-02 -8.593750e-01 0.000000e+00
1.562500e-01 -8.593750e-01 0.000000e+00
2.343750e-01 -8.593750e-01 0.000000e+00
3.125000e-01 -8.593750e-01 0.000000e+00
3.906250e-01 -8.593750e-01 0.000000e+00
4.687500e-01 -8.593750e-01 0.000000e+00
5.468750e-01 -8.593750e-01 0.000000e+00
6.250000e-01 -8.593750e-01 0.000000e+00
7.031250e-01 -9.375000e-01 0.000000e+00
7.031250e-01 -8.593750e-01 0.000000e+00
7.812500e-01 -9.375000e-01 0.000000e+00
7.812500e-01 -8.593750e-01 0.000000e+00
8.593750e-01 -9.375000e-01 0.000000e+00
8.593750e-01 -8.593750e-01 0.000000e+00
9.375000e-01 -9.375000e-01 0.000000e+00
9.375000e-01 -8.593750e-01 0.000000e+00
1.015625e+00 -9.375000e-01 0.000000e+00
1.015625e+00 -8.593750e-01 0.000000e+00
1.093750e+00 -9.375000e-01 0.000000e+00
1.093750e+00 -8.593750e-01 0.000000e+00
-9.375000e-01 -7.812500e-01 0.000000e+00
-8.593750e-01 -7.812500e-01 0.000000e+00
-7.812500e-01 -7.812500e-01 0.000000e+00
-7.031250e-01 -7.812500e-01 0.000000e+00
-6.250000e-01 -7.812500e-01 0.000000e+00
-5.468750e-01 -7.812500e-01 0.000000e+00
-4.687500e-01 -7.812500e-01 0.000000e+00
-3.906250e-01 -7.812500e-01 0.000000e+00
-3.125000e-01 -7.812500e-01 0.000000e+00
-2.343750e-01 -7.812500e-01 0.000000e+00
-1.562500e-01 -7.812500e-01 0.000000e+00
-7.812500e-02 -7.812500e-01 0.000000e+00
0.000000e+00 -7.812500e-01 0.000000e+00
7.812500e-02 -7.812500e-01 0.000000e+00
1.562500e-01 -7.812500e-01 0.000000e+00
2.343750e-01 -7.812500e-01 0.000000e+00
3.125000e-01 -7.812500e-01 0.000000e+00
3.906250e-01 -7.812500e-01 0.000000e+00
4.687500e-01 -7.812500e-01 0.000000e+00
5.468750e-01 -7.812500e-01 0.000000e+00
6.250000e-01 -7.812500e-01 0.000000e+00
7.031250e-01 -7.812500e-01 0.000000e+00
7.812500e-01 -7.812500e-01 0.000000e+00
8.593750e-01 -7.812500e-01 0.000000e+00
9.375000e-01 -7.812500e-01 0.000000e+00
1.015625e+00 -7.812500e-01 0.000000e+00
1.093750e+00 -7.812500e-01 0.000000e+00
1.171875e+00 -8.593750e-01 0.000000e+00
1.171875e+00 -7.812500e-01 0.000000e+00
-1.015625e+00 -7.031250e-01 0.000000e+00
-1.015625e+00 -7.812500e-01 0.000000e+00
-9.375000e-01 -7.031250e-01 0.000000e+00
-8.593750e-01 -7.031250e-01 0.000000e+00
-7.812500e-01 -7.031250e-01 0.000000e+00
-7.031250e-01 -7.031250e-01 0.000000e+00
-6.250000e-01 -7.031250e-01 0.000000e+00
-5.468750e-01 -7.031250e-01 0.000000e+00
-4.687500e-01 -7.031250e-01 0.000000e+00
-3.906250e-01 -7.031250e-01 0.000000e+00
-3.125000e-01 -7.031250e-01 0.000000e+00
-2.343750e-01 -7.031250e-01 0.000000e+00
-1.562500e-01 -7.031250e-01 0.000000e+00
-7.812500e-02 -7.031250e-01 0.000000e+00
0.000000e+00 -7.031250e-01 0.000000e+00
7.812500e-02 -7.031250e-01 0.000000e+00
1.562500e-01 -7.031250e-01 0.000000e+00
2.343750e-01 -7.031250e-01 0.000000e+00
3.125000e-01 -7.031250e-01 0.000000e+00
3.906250e-01 -7.031250e-01 0.000000e+00
4.687500e-01 -7.031250e-01 0.000000e+00
5.468750e-01 -7.031250e-01 0.000000e+00
6.250000e-01 -7.031250e-01 0.000000e+00
7.031250e-01 -7.031250e-01 0.000000e+00
7.812500e-01 -7.031250e-01 0.000000e+00
8.593750e-01 -7.031250e-01 0.000000e+00
9.375000e-01 -7.031250e-01 0.000000e+00
1.015625e+00 -7.031250e-01 0.000000e+00
1.093750e+00 -7.031250e-01 0.000000e+00
1.171875e+00 -7.031250e-01 0.000000e+00
-1.015625e+00 -6.250000e-01 0.000000e+00
-9.375000e-01 -6.250000e-01 0.000000e+00
-8.593750e-01 -6.250000e-01 0.000000e+00
-7.812500e-01 -6.250000e-01 0.000000e+00
-7.031250e-01 -6.250000e-01 0.000000e+00
-6.250000e-01 -6.250000e-01 0.000000e+00
-5.468750e-01 -6.250000e-01 0.000000e+00
-4.687500e-01 -6.250000e-01 0.000000e+00
-3.906250e-01 -6.250000e-01 0.000000e+00
-3.125000e-01 -6.250000e-01 0.000000e+00
-2.343750e-01 -6.250000e-01 0.000000e+00
-1.562500e-01 -6.250000e-01 0.000000e+00
-7.812500e-02 -6.250000e-01 0.000000e+00
0.000000e+00 -6.250000e-01 0.000000e+00
7.812500e-02 -6.250000e-01 0.000000e+00
1.562500e-01 -6.250000e-01 0.000000e+00
2.343750e-01 -6.250000e-01 0.000000e+00
3.125000e-01 -6.250000e-01 0.000000e+00
3.906250e-01 -6.250000e-01 0.000000e+00
4.687500e-01 -6.250000e-01 0.000000e+00
5.468750e-01 -6.250000e-01 0.000000e+00
6.250000e-01 -6.250000e-01 0.000000e+00
7.031250e-01 -6.250000e-01 0.000000e+00
7.812500e-01 -6.250000e-01 0.000000e+00
8.593750e-01 -6.250000e-01 0.000000e+00
9.375000e-01 -6.250000e-01 0.000000e+00
1.015625e+00 -6.250000e-01 0.000000e+00
1.093750e+00 -6.250000e-01 0.000000e+00
1.171875e+00 -6.250000e-01 0.000000e+00
-1.015625e+00 -5.468750e-01 0.000000e+00
-9.375000e-01 -5.468750e-01 0.000000e+00
-8.593750e-01 -5.468750e-01 0.000000e+00
-7.812500e-01 -5.468750e-01 0.000000e+00
-7.031250e-01 -5.468750e-01 0.000000e+00
-6.250000e-01 -5.468750e-01 0.000000e+00
-5.468750e-01 -5.468750e-01 0.000000e+00
-4.687500e-01 -5.468750e-01 0.000000e+00
-3.906250e-01 -5.468750e-01 0.000000e+00
-3.125000e-01 -5.468750e-01 0.000000e+00
-2.343750e-01 -5.468750e-01 0.000000e+00
-1.562500e-01 -5.468750e-01 0.000000e+00
-7.812500e-02 -5.468750e-01 0.000000e+00
0.000000e+00 -5.468750e-01 0.000000e+00
7.812500e-02 -5.468750e-01 0.000000e+00
1.562500e-01 -5.468750e-01 0.000000e+00
2.343750e-01 -5.468750e-01 0.000000e+00
[...]
         <CellData Scalars="count">
            <DataArray type="Float64" Name="solution" format="ascii">
2.455170e-01 4.005764e-01 2.563425e-01 2.344793e-01 3.229775e-01 1.718399e-01 2.905490e-01 6.611370e-01 1.115098e+00 1.370100e+00 1.197444e+00 5.657570e-01 5.254108e-01 9.016479e-01 1.003528e+00 1.176038e+00 1.098710e+00 7.042881e-01 2.111518e-01 3.300025e-01 1.094945e+00 1.822331e+00 2.387681e+00 2.729130e+00 2.744743e+00 2.330593e+00 1.746419e+00 1.631062e+00 1.645056e+00 1.787096e+00 2.383344e+00 2.779281e+00 2.807629e+00 2.616192e+00 2.172046e+00 1.454520e+00 5.329897e-01 8.881740e-01 2.136650e+00 3.112890e+00 3.880660e+00 4.421666e+00 4.699104e+00 4.723418e+00 4.625475e+00 4.585958e+00 4.625835e+00 4.748798e+00 4.933454e+00 4.991542e+00 4.794216e+00 4.316284e+00 3.537779e+00 2.418106e+00 9.269032e-01 6.204131e-01 1.984901e+00 3.403717e+00 4.601319e+00 5.598592e+00 6.382217e+00 5.242205e+00 3.773391e+00 1.650703e+00 4.869050e-01 1.799441e+00 3.363285e+00 4.883330e+00 6.285937e+00 1.204474e+01 1.317638e+01 1.394624e+01 1.434229e+01 1.434257e+01 1.391734e+01 1.303377e+01 1.166861e+01 3.694414e+00 1.952461e+00 1.329433e+00 9.736825e-01 6.948076e-01 4.455445e-01 1.853993e-01 1.152932e+00 3.003354e+00 4.771486e+00 6.493060e+00 1.342456e+01 1.573836e+01 1.767153e+01 1.917544e+01 2.020551e+01 2.072166e+01 2.069232e+01 2.009922e+01 1.894115e+01 1.723620e+01 1.501950e+01 1.233922e+01 4.770785e+00 3.625062e+00 2.725335e+00 1.955945e+00 1.268822e+00 6.431065e-01 1.614309e-01 5.452467e-01 2.194625e+00 4.225353e+00 1.531048e+01 1.847014e+01 2.130487e+01 2.372812e+01 2.564900e+01 2.698014e+01 2.764876e+01 2.760872e+01 2.684941e+01 2.539844e+01 2.331735e+01 2.069286e+01 1.762998e+01 1.425622e+01 4.356523e+00 3.140585e+00 2.029637e+00 1.058138e+00 3.144519e-01 1.127772e+00 3.270960e+00 5.480768e+00 1.201706e+01 1.611688e+01 2.008345e+01 2.383903e+01 2.728204e+01 3.028759e+01 3.271467e+01 3.442180e+01 3.529066e+01 3.525096e+01 3.429706e+01 3.249003e+01 2.994464e+01 2.680779e+01 2.323872e+01 1.939872e+01 1.544728e+01 1.152879e+01 5.871542e+00 4.226078e+00 2.669724e+00 1.220395e+00 2.382026e-01 1.646092e+00 4.267214e+00 1.579277e+01 2.046008e+01 2.506325e+01 2.951648e+01 3.369369e+01 3.742523e+01 4.050409e+01 4.271000e+01 4.385233e+01 4.381894e+01 4.260710e+01 4.032525e+01 3.716513e+01 3.335502e+01 2.911837e+01 2.465088e+01 2.011236e+01 1.562162e+01 5.226981e+00 3.219713e+00 1.184143e+00 6.615373e-01 2.741655e+00 1.437091e+01 1.957588e+01 2.486180e+01 3.018626e+01 3.546239e+01 4.054433e+01 4.521264e+01 4.917125e+01 5.207531e+01 5.360884e+01 5.358484e+01 5.200152e+01 4.904466e+01 4.503414e+01 4.032375e+01 3.522279e+01 2.996740e+01 2.472158e+01 1.958676e+01 1.461038e+01 3.778927e+00 1.339655e+00 1.317342e+00 3.841760e+00 1.199440e+01 1.753431e+01 2.327247e+01 2.921775e+01 3.534772e+01 4.159006e+01 4.779486e+01 5.370013e+01 5.889645e+01 6.283555e+01 6.495467e+01 6.494229e+01 6.279485e+01 5.882208e+01 5.359407e+01 4.766996e+01 4.146951e+01 3.526398e+01 2.921086e+01 2.338556e+01 1.780500e+01 1.244049e+01 4.394847e+00 1.581507e+00 1.870954e+00 1.456109e+01 2.049656e+01 2.675687e+01 3.338097e+01 4.038419e+01 4.773635e+01 5.532046e+01 6.286790e+01 6.282121e+01 5.526791e+01 4.770216e+01 4.039485e+01 3.346283e+01 2.693229e+01 2.077683e+01 1.493478e+01 2.026827e+00 8.799967e-01 3.143772e+00 1.096300e+01 1.685453e+01 2.313171e+01 2.987385e+01 3.715809e+01 4.505786e+01 5.362606e+01 6.284554e+01 7.558138e+01 7.558447e+01 7.558448e+01 7.558143e+01 6.284050e+01 5.365140e+01 4.513597e+01 3.730520e+01 3.009843e+01 2.343003e+01 1.720379e+01 1.131403e+01 3.318188e+00 9.313952e-01 6.461039e-01 2.285133e+00 4.498962e+00 1.273170e+01 1.876033e+01 2.530193e+01 3.244846e+01 4.031696e+01 4.905353e+01 5.883541e+01 7.558443e+01 7.559056e+01 7.559365e+01 7.559368e+01 7.559065e+01 7.558458e+01 5.889811e+01 4.918260e+01 4.052009e+01 3.272479e+01 2.563969e+01 1.913366e+01 1.309896e+01 4.741821e+00 2.432220e+00 6.957404e-01 4.557592e-01 1.677948e+00 3.408203e+00 5.514470e+00 1.405940e+01 2.015726e+01 2.687124e+01 3.430597e+01 4.261332e+01 5.200797e+01 6.280016e+01 7.558135e+01 7.559055e+01 7.559669e+01 7.559978e+01 7.559982e+01 7.559681e+01 7.559076e+01 7.558166e+01 6.288421e+01 5.218035e+01 4.287290e+01 3.464519e+01 2.727394e+01 2.059677e+01 1.449859e+01 5.856233e+00 3.669782e+00 1.835292e+00 5.078621e-01 2.558508e-01 1.112707e+00 2.432155e+00 4.122778e+00 6.187394e+00 1.484058e+01 2.094495e+01 2.772735e+01 3.530100e+01 4.383721e+01 5.359050e+01 6.494383e+01 7.558443e+01 7.559362e+01 7.559977e+01 7.560286e+01 7.560291e+01 7.559992e+01 7.559388e+01 7.558481e+01 6.504481e+01 5.380716e+01 4.416041e+01 3.571891e+01 2.822163e+01 2.148838e+01 1.539687e+01 6.664530e+00 4.520150e+00 2.719949e+00 1.271914e+00 2.993198e-01 4.599312e-01 1.471263e+00 2.797180e+00 4.467980e+00 6.493512e+00 1.501821e+01 2.106198e+01 2.780158e+01 3.534676e+01 4.386460e+01 5.360595e+01 6.495067e+01 7.558445e+01 7.559364e+01 7.559979e+01 7.560289e+01 7.560294e+01 7.559996e+01 7.559394e+01 7.558489e+01 6.507894e+01 5.387518e+01 4.426262e+01 3.586130e+01 2.841459e+01 2.174605e+01 1.573528e+01 7.146929e+00 5.031513e+00 3.233087e+00 1.750564e+00 5.604148e-01 4.672533e-01 1.493276e+00 2.818892e+00 4.458295e+00 6.430403e+00 1.457353e+01 2.048991e+01 2.707954e+01 3.443329e+01 4.268918e+01 5.205092e+01 6.282039e+01 7.558140e+01 7.559060e+01 7.559675e+01 7.559985e+01 7.559991e+01 7.559694e+01 7.559092e+01 7.558188e+01 6.299489e+01 5.238344e+01 4.317336e+01 3.506193e+01 2.783842e+01 2.135293e+01 1.549948e+01 7.308059e+00 5.225093e+00 3.431943e+00 1.915396e+00 6.341961e-01 2.686105e-01 1.196412e+00 2.532265e+00 4.116390e+00 6.007992e+00 1.351651e+01 1.925019e+01 2.560110e+01 3.262834e+01 4.042325e+01 4.911400e+01 5.886590e+01 7.558451e+01 7.559065e+01 7.559376e+01 7.559382e+01 7.559084e+01 7.558484e+01 5.909856e+01 4.951477e+01 4.099978e+01 3.338449e+01 2.653139e+01 2.033325e+01 1.470860e+01 7.167918e+00 5.130025e+00 3.349671e+00 1.830103e+00 5.856783e-01 7.194845e-01 1.997114e+00 3.463294e+00 5.238177e+00 1.187878e+01 1.739754e+01 2.345176e+01 3.006194e+01 3.726805e+01 4.512066e+01 5.365918e+01 6.285921e+01 7.558149e+01 7.558460e+01 7.558466e+01 7.558167e+01 6.299329e+01 5.394206e+01 4.558143e+01 3.793214e+01 3.094992e+01 2.457370e+01 1.874361e+01 1.340736e+01 6.758828e+00 4.778601e+00 3.014694e+00 1.448345e+00 3.286648e-01 3.229431e-01 1.240169e+00 2.488291e+00 4.114855e+00 1.501297e+01 2.074992e+01 2.690167e+01 3.346517e+01 4.043282e+01 4.776266e+01 5.533207e+01 6.287049e+01 6.293122e+01 5.549156e+01 4.806748e+01 4.092791e+01 3.419527e+01 2.790986e+01 2.207127e+01 1.666160e+01 6.119518e+00 4.210752e+00 2.481456e+00 8.960706e-01 3.848491e-01 1.076784e+00 2.572003e+00 4.633946e+00 1.220037e+01 1.763596e+01 2.332915e+01 2.925289e+01 3.536991e+01 4.160248e+01 4.779909e+01 5.369780e+01 5.888978e+01 6.282732e+01 6.494814e+01 6.494321e+01 6.281704e+01 5.889171e+01 5.374547e+01 4.793775e+01 4.188467e+01 3.585435e+01 3.000495e+01 2.442032e+01 1.913914e+01 1.417451e+01 7.262403e+00 5.291196e+00 3.468127e+00 1.755433e+00 4.306573e-01 8.841397e-01 2.856081e+00 1.426799e+01 1.952429e+01 2.484067e+01 3.017940e+01 3.545956e+01 4.053964e+01 4.520314e+01 4.915609e+01 5.205577e+01 5.358927e+01 5.357470e+01 5.201821e+01 4.911488e+01 4.519171e+01 4.060482e+01 3.566052e+01 3.058783e+01 2.554257e+01 2.062331e+01 1.588833e+01 6.142529e+00 4.310797e+00 2.613007e+00 9.766357e-01 1.021753e+00 3.440928e+00 1.565542e+01 2.039883e+01 2.503730e+01 2.950402e+01 3.368293e+01 3.740939e+01 4.047929e+01 4.267517e+01 4.381076e+01 4.378064e+01 4.259122e+01 4.036134e+01 3.729180e+01 3.361546e+01 2.955239e+01 2.528428e+01 2.094760e+01 1.663776e+01 6.694583e+00 4.884555e+00 3.193493e+00 1.641387e+00 4.301902e-01 1.937615e+00 4.837700e+00 1.186484e+01 1.605393e+01 2.005876e+01 2.382793e+01 2.727164e+01 3.026934e+01 3.268154e+01 3.436882e+01 3.521754e+01 3.516557e+01 3.421888e+01 3.245263e+01 2.999588e+01 2.700592e+01 2.364142e+01 2.004239e+01 1.632040e+01 1.255823e+01 6.916266e+00 5.184517e+00 3.513835e+00 1.918692e+00 5.844758e-01 1.383949e+00 3.805557e+00 1.530946e+01 1.847206e+01 2.130295e+01 2.371460e+01 2.561297e+01 2.690992e+01 2.753683e+01 2.745720e+01 2.667546e+01 2.523914e+01 2.323318e+01 2.076752e+01 1.795999e+01 1.491843e+01 5.196895e+00 3.620447e+00 2.042709e+00 6.494537e-01 1.060480e+00 2.986068e+00 4.817541e+00 6.552421e+00 1.344499e+01 1.575236e+01 1.767411e+01 1.914907e+01 2.012652e+01 2.056968e+01 2.045833e+01 1.979303e+01 1.859958e+01 1.693157e+01 1.486911e+01 1.250862e+01 6.206015e+00 4.868952e+00 3.487793e+00 2.032380e+00 6.682944e-01 7.974681e-01 2.267502e+00 3.703809e+00 5.084512e+00 6.387423e+00 1.208220e+01 1.318506e+01 1.388011e+01 1.416049e+01 1.401774e+01 1.344347e+01 1.243924e+01 1.102765e+01 5.208600e+00 4.130965e+00 3.008797e+00 1.833725e+00 6.353978e-01 5.439919e-01 1.584424e+00 2.645210e+00 3.692243e+00 4.699413e+00 5.620188e+00 6.396970e+00 4.474377e+00 3.756736e+00 3.024094e+00 2.101634e+00 1.138603e+00 4.897628e-01 2.395889e-01 8.793771e-01 1.604984e+00 2.332214e+00 3.097813e+00 3.809112e+00 4.373972e+00 4.752680e+00 4.912573e+00 4.842842e+00 4.644412e+00 4.476498e+00 4.328081e+00 4.140523e+00 3.857824e+00 3.402748e+00 2.613698e+00 1.706386e+00 1.325460e+00 1.012531e+00 5.105200e-01 2.424964e-01 5.640036e-01 9.002705e-01 1.556093e+00 2.156837e+00 2.535750e+00 2.738453e+00 2.723930e+00 2.336092e+00 1.743733e+00 1.582781e+00 1.510971e+00 1.436334e+00 1.323386e+00 1.116576e+00 6.047848e-01 3.700374e-01 7.085278e-01 8.612788e-01 9.254318e-01 8.755744e-01 5.141588e-01 6.940507e+01 7.200021e+01 7.333099e+01 7.332809e+01 7.198837e+01 6.937944e+01 7.025315e+01 7.100987e+01 7.557268e+01 7.557417e+01 7.557417e+01 7.557269e+01 7.023209e+01 7.099719e+01 7.100645e+01 7.024014e+01 7.557468e+01 7.557517e+01 7.557473e+01 7.557526e+01 7.100035e+01 7.024586e+01 6.938589e+01 7.557514e+01 7.557464e+01 7.557534e+01 7.557491e+01 6.940461e+01 7.199020e+01 7.557262e+01 7.557301e+01 7.201196e+01 7.332838e+01 7.557412e+01 7.557461e+01 7.334951e+01 7.332993e+01 7.557414e+01 7.557471e+01 7.335755e+01 7.199575e+01 7.557267e+01 7.557471e+01 7.557328e+01 7.557525e+01 7.204448e+01 6.939579e+01 7.024726e+01 7.557522e+01 7.557525e+01 7.557570e+01 7.557561e+01 6.947686e+01 7.031011e+01 7.101025e+01 7.101193e+01 7.557478e+01 7.557279e+01 7.557431e+01 7.557436e+01 7.557505e+01 7.557295e+01 7.105132e+01 7.104153e+01 7.025318e+01 6.940343e+01 7.199829e+01 7.332986e+01 7.332893e+01 7.199697e+01 7.027015e+01 6.941094e+01 6.871594e+00 6.802672e+00 6.618396e+00 6.447184e+00 6.389790e+00 6.481260e+00 6.655315e+00 6.756000e+00 6.661884e+00 6.324785e+00 7.461322e+00 7.315262e+00 7.897763e+00 8.599402e+00 8.796286e+00 8.893359e+00 8.958499e+00 9.011703e+00 8.998396e+00 8.802247e+00 8.342374e+00 6.477883e+00 6.664391e+00 5.714904e+00 7.590325e+00 7.729360e+00 9.809473e+00 1.000571e+01 1.064274e+01 9.436580e+00 9.839429e+00 8.563282e+00 5.604178e+00 5.719615e+00 6.611815e+00 7.671769e+00 7.567823e+00 1.051527e+01 1.075152e+01 9.035094e+00 9.214322e+00 5.845807e+00 6.342079e+00 5.837469e+00 6.393341e+00 9.316757e+00 1.103903e+01 1.107121e+01 9.664132e+00 9.957608e+00 8.499682e+00 6.078274e+00 6.924518e+00 6.421780e+00 9.018417e+00 8.764039e+00 6.976726e+00 6.910454e+00 6.155643e+00 5.575309e+00 1.039296e+01 1.000788e+01 1.045021e+01 1.030436e+01 6.814386e+00 6.382629e+00 5.224625e+00 9.305259e+00 8.835283e+00 9.815964e+00 9.414847e+00 6.021351e+00 5.682929e+00 5.117639e+00 7.903638e+00 8.473503e+00 6.279480e+00 5.549129e+00 4.805981e+00 8.954533e+00 8.439867e+00 9.385473e+00 8.811883e+00 5.134561e+00 5.477862e+00 7.342761e+00 7.653980e+00 5.747906e+00 6.292265e+00 8.366497e+00 8.691756e+00 6.585408e+00 7.050817e+00 9.266186e+00 9.667650e+00 7.424572e+00 7.613275e+00 9.879198e+00 1.040901e+01 8.117943e+00 7.902825e+00 1.013169e+01 1.084055e+01 8.590412e+00 7.887437e+00 9.996233e+00 1.093872e+01 8.810679e+00 7.583886e+00 9.476733e+00 1.071344e+01 8.800822e+00 7.016563e+00 8.622350e+00 9.440930e+00 1.021128e+01 1.126823e+01 8.593772e+00 6.213402e+00 6.164554e+00 9.702212e+00 1.169648e+01 8.221013e+00 8.419393e+00 6.223395e+00 8.248356e+00 8.797904e+00 1.060275e+01 1.115058e+01 8.743681e+00 5.230485e+00 5.255393e+00 9.073988e+00 9.675001e+00 1.131374e+01 1.155255e+01 8.078472e+00 8.117291e+00 5.580158e+00 5.824293e+00 1.008276e+01 1.157801e+01 8.192896e+00 8.121612e+00 6.498461e+00 8.749890e+00 9.206984e+00 1.103779e+01 1.100960e+01 9.836006e+00 9.604339e+00 8.044737e+00 6.113271e+00 6.483776e+00 7.536729e+00 1.104823e+01 1.078482e+01 1.066276e+01 9.992732e+00 7.574033e+00 7.127650e+00 6.975949e+00 7.725534e+00 7.797131e+00 1.054977e+01 9.839663e+00 1.067507e+01 9.357692e+00 9.512552e+00 8.513451e+00 7.172352e+00 6.956903e+00 7.650569e+00 7.504642e+00 7.927012e+00 1.005109e+01 8.676933e+00 8.865229e+00 8.873962e+00 8.775593e+00 8.609321e+00 8.352871e+00 7.960053e+00 8.722035e+00 7.411430e+00 6.324788e+00 6.426343e+00 6.047773e+00 7.351690e+00 6.931296e+00 6.915685e+00 6.734467e+00 6.463757e+00 6.218666e+00 6.051488e+00 5.926913e+00 5.780979e+00 5.551061e+00 5.625499e+00 5.233358e+00 
            </DataArray>
         </CellData>
      </Piece>  
   </UnstructuredGrid>
</VTKFile>
