<VTKFile type="UnstructuredGrid" version="0.1" byte_order="LittleEndian">
   <UnstructuredGrid>
      <Piece  NumberOfPoints="1192"  NumberOfCells="999">
         <Points>
            <DataArray type="Float32" NumberOfComponents="3" format="ascii">
-5.468750e-01 -1.250000e+00 0.000000e+00
-5.468750e-01 -1.328125e+00 0.000000e+00
-4.687500e-01 -1.328125e+00 0.000000e+00
-4.687500e-01 -1.250000e+00 0.000000e+00
-3.906250e-01 -1.328125e+00 0.000000e+00
-3.906250e-01 -1.250000e+00 0.000000e+00
-3.125000e-01 -1.328125e+00 0.000000e+00
-3.125000e-01 -1.250000e+00 0.000000e+00
3.125000e-01 -1.250000e+00 0.000000e+00
3.125000e-01 -1.328125e+00 0.000000e+00
3.906250e-01 -1.328125e+00 0.000000e+00
3.906250e-01 -1.250000e+00 0.000000e+00
4.687500e-01 -1.328125e+00 0.000000e+00
4.687500e-01 -1.250000e+00 0.000000e+00
5.468750e-01 -1.328125e+00 0.000000e+00
5.468750e-01 -1.250000e+00 0.000000e+00
-7.031250e-01 -1.171875e+00 0.000000e+00
-7.031250e-01 -1.250000e+00 0.000000e+00
-6.250000e-01 -1.250000e+00 0.000000e+00
-6.250000e-01 -1.171875e+00 0.000000e+00
-5.468750e-01 -1.171875e+00 0.000000e+00
-4.687500e-01 -1.171875e+00 0.000000e+00
-3.906250e-01 -1.171875e+00 0.000000e+00
-3.125000e-01 -1.171875e+00 0.000000e+00
-2.343750e-01 -1.250000e+00 0.000000e+00
-2.343750e-01 -1.171875e+00 0.000000e+00
7.812500e-02 -1.171875e+00 0.000000e+00
7.812500e-02 -1.250000e+00 0.000000e+00
1.562500e-01 -1.250000e+00 0.000000e+00
1.562500e-01 -1.171875e+00 0.000000e+00
2.343750e-01 -1.250000e+00 0.000000e+00
2.343750e-01 -1.171875e+00 0.000000e+00
3.125000e-01 -1.171875e+00 0.000000e+00
3.906250e-01 -1.171875e+00 0.000000e+00
4.687500e-01 -1.171875e+00 0.000000e+00
5.468750e-01 -1.171875e+00 0.000000e+00
6.250000e-01 -1.250000e+00 0.000000e+00
6.250000e-01 -1.171875e+00 0.000000e+00
-7.812500e-01 -1.093750e+00 0.000000e+00
-7.812500e-01 -1.171875e+00 0.000000e+00
-7.031250e-01 -1.093750e+00 0.000000e+00
-6.250000e-01 -1.093750e+00 0.000000e+00
-5.468750e-01 -1.093750e+00 0.000000e+00
-4.687500e-01 -1.093750e+00 0.000000e+00
-3.906250e-01 -1.093750e+00 0.000000e+00
-3.125000e-01 -1.093750e+00 0.000000e+00
-2.343750e-01 -1.093750e+00 0.000000e+00
-1.562500e-01 -1.171875e+00 0.000000e+00
-1.562500e-01 -1.093750e+00 0.000000e+00
-7.812500e-02 -1.171875e+00 0.000000e+00
-7.812500e-02 -1.093750e+00 0.000000e+00
0.000000e+00 -1.171875e+00 0.000000e+00
0.000000e+00 -1.093750e+00 0.000000e+00
7.812500e-02 -1.093750e+00 0.000000e+00
1.562500e-01 -1.093750e+00 0.000000e+00
2.343750e-01 -1.093750e+00 0.000000e+00
3.125000e-01 -1.093750e+00 0.000000e+00
3.906250e-01 -1.093750e+00 0.000000e+00
4.687500e-01 -1.093750e+00 0.000000e+00
5.468750e-01 -1.093750e+00 0.000000e+00
6.250000e-01 -1.093750e+00 0.000000e+00
-7.812500e-01 -1.015625e+00 0.000000e+00
-7.031250e-01 -1.015625e+00 0.000000e+00
-6.250000e-01 -1.015625e+00 0.000000e+00
-5.468750e-01 -1.015625e+00 0.000000e+00
-4.687500e-01 -1.015625e+00 0.000000e+00
-3.906250e-01 -1.015625e+00 0.000000e+00
-3.125000e-01 -1.015625e+00 0.000000e+00
-2.343750e-01 -1.015625e+00 0.000000e+00
-1.562500e-01 -1.015625e+00 0.000000e+00
-7.812500e-02 -1.015625e+00 0.000000e+00
0.000000e+00 -1.015625e+00 0.000000e+00
7.812500e-02 -1.015625e+00 0.000000e+00
1.562500e-01 -1.015625e+00 0.000000e+00
2.343750e-01 -1.015625e+00 0.000000e+00
3.125000e-01 -1.015625e+00 0.000000e+00
3.906250e-01 -1.015625e+00 0.000000e+00
4.687500e-01 -1.015625e+00 0.000000e+00
5.468750e-01 -1.015625e+00 0.000000e+00
6.250000e-01 -1.015625e+00 0.000000e+00
-8.593750e-01 -9.375000e-01 0.000000e+00
-8.593750e-01 -1.015625e+00 0.000000e+00
-7.812500e-01 -9.375000e-01 0.000000e+00
-7.031250e-01 -9.375000e-01 0.000000e+00
-6.250000e-01 -9.375000e-01 0.000000e+00
-5.468750e-01 -9.375000e-01 0.000000e+00
-4.687500e-01 -9.375000e-01 0.000000e+00
-3.906250e-01 -9.375000e-01 0.000000e+00
-3.125000e-01 -9.375000e-01 0.000000e+00
-2.343750e-01 -9.375000e-01 0.000000e+00
-1.562500e-01 -9.375000e-01 0.000000e+00
-7.812500e-02 -9.375000e-01 0.000000e+00
0.000000e+00 -9.375000e-01 0.000000e+00
7.812500e-02 -9.375000e-01 0.000000e+00
1.562500e-01 -9.375000e-01 0.000000e+00
2.343750e-01 -9.375000e-01 0.000000e+00
3.125000e-01 -9.375000e-01 0.000000e+00
3.906250e-01 -9.375000e-01 0.000000e+00
4.687500e-01 -9.375000e-01 0.000000e+00
5.468750e-01 -9.375000e-01 0.000000e+00
6.250000e-01 -9.375000e-01 0.000000e+00
-9.375000e-01 -8.593750e-01 0.000000e+00
-9.375000e-01 -9.375000e-01 0.000000e+00
-8.593750e-01 -8.593750e-01 0.000000e+00
-7.812500e-01 -8.593750e-01 0.000000e+00
-7.031250e-01 -8.593750e-01 0.000000e+00
-6.250000e-01 -8.593750e-01 0.000000e+00
-5.468750e-01 -8.593750e-01 0.000000e+00
-4.687500e-01 -8.593750e-01 0.000000e+00
-3.906250e-01 -8.593750e-01 0.000000e+00
-3.125000e-01 -8.593750e-01 0.000000e+00
-2.343750e-01 -8.593750e-01 0.000000e+00
-1.562500e-01 -8.593750e-01 0.000000e+00
-7.812500e-02 -8.593750e-01 0.000000e+00
0.000000e+00 -8.593750e-01 0.000000e+00
7.812500e-02 -8.593750e-01 0.000000e+00
1.562500e-01 -8.593750e-01 0.000000e+00
2.343750e-01 -8.593750e-01 0.000000e+00
3.125000e-01 -8.593750e-01 0.000000e+00
3.906250e-01 -8.593750e-01 0.000000e+00
4.687500e-01 -8.593750e-01 0.000000e+00
5.468750e-01 -8.593750e-01 0.000000e+00
6.250000e-01 -8.593750e-01 0.000000e+00
7.031250e-01 -9.375000e-01 0.000000e+00
7.031250e-01 -8.593750e-01 0.000000e+00
7.812500e-01 -9.375000e-01 0.000000e+00
7.812500e-01 -8.593750e-01 0.000000e+00
8.593750e-01 -9.375000e-01 0.000000e+00
8.593750e-01 -8.593750e-01 0.000000e+00
9.375000e-01 -9.375000e-01 0.000000e+00
9.375000e-01 -8.593750e-01 0.000000e+00
1.015625e+00 -9.375000e-01 0.000000e+00
1.015625e+00 -8.593750e-01 0.000000e+00
1.093750e+00 -9.375000e-01 0.000000e+00
1.093750e+00 -8.593750e-01 0.000000e+00
-9.375000e-01 -7.812500e-01 0.000000e+00
-8.593750e-01 -7.812500e-01 0.000000e+00
-7.812500e-01 -7.812500e-01 0.000000e+00
-7.031250e-01 -7.812500e-01 0.000000e+00
-6.250000e-01 -7.812500e-01 0.000000e+00
-5.468750e-01 -7.812500e-01 0.000000e+00
-4.687500e-01 -7.812500e-01 0.000000e+00
-3.906250e-01 -7.812500e-01 0.000000e+00
-3.125000e-01 -7.812500e-01 0.000000e+00
-2.343750e-01 -7.812500e-01 0.000000e+00
-1.562500e-01 -7.812500e-01 0.000000e+00
-7.812500e-02 -7.812500e-01 0.000000e+00
0.000000e+00 -7.812500e-01 0.000000e+00
7.812500e-02 -7.812500e-01 0.000000e+00
1.562500e-01 -7.812500e-01 0.000000e+00
2.343750e-01 -7.812500e-01 0.000000e+00
3.125000e-01 -7.812500e-01 0.000000e+00
3.906250e-01 -7.812500e-01 0.000000e+00
4.687500e-01 -7.812500e-01 0.000000e+00
5.468750e-01 -7.812500e-01 0.000000e+00
6.250000e-01 -7.812500e-01 0.000000e+00
7.031250e-01 -7.812500e-01 0.000000e+00
7.812500e-01 -7.812500e-01 0.000000e+00
8.593750e-01 -7.812500e-01 0.000000e+00
9.375000e-01 -7.812500e-01 0.000000e+00
1.015625e+00 -7.812500e-01 0.000000e+00
1.093750e+00 -7.812500e-01 0.000000e+00
1.171875e+00 -8.593750e-01 0.000000e+00
1.171875e+00 -7.812500e-01 0.000000e+00
-1.015625e+00 -7.031250e-01 0.000000e+00
-1.015625e+00 -7.812500e-01 0.000000e+00
-9.375000e-01 -7.031250e-01 0.000000e+00
-8.593750e-01 -7.031250e-01 0.000000e+00
-7.812500e-01 -7.031250e-01 0.000000e+00
-7.031250e-01 -7.031250e-01 0.000000e+00
-6.250000e-01 -7.031250e-01 0.000000e+00
-5.468750e-01 -7.031250e-01 0.000000e+00
-4.687500e-01 -7.031250e-01 0.000000e+00
-3.906250e-01 -7.031250e-01 0.000000e+00
-3.125000e-01 -7.031250e-01 0.000000e+00
-2.343750e-01 -7.031250e-01 0.000000e+00
-1.562500e-01 -7.031250e-01 0.000000e+00
-7.812500e-02 -7.031250e-01 0.000000e+00
0.000000e+00 -7.031250e-01 0.000000e+00
7.812500e-02 -7.031250e-01 0.000000e+00
1.562500e-01 -7.031250e-01 0.000000e+00
2.343750e-01 -7.031250e-01 0.000000e+00
3.125000e-01 -7.031250e-01 0.000000e+00
3.906250e-01 -7.031250e-01 0.000000e+00
4.687500e-01 -7.031250e-01 0.000000e+00
5.468750e-01 -7.031250e-01 0.000000e+00
6.250000e-01 -7.031250e-01 0.000000e+00
7.031250e-01 -7.031250e-01 0.000000e+00
7.812500e-01 -7.031250e-01 0.000000e+00
8.593750e-01 -7.031250e-01 0.000000e+00
9.375000e-01 -7.031250e-01 0.000000e+00
1.015625e+00 -7.031250e-01 0.000000e+00
1.093750e+00 -7.031250e-01 0.000000e+00
1.171875e+00 -7.031250e-01 0.000000e+00
-1.015625e+00 -6.250000e-01 0.000000e+00
-9.375000e-01 -6.250000e-01 0.000000e+00
-8.593750e-01 -6.250000e-01 0.000000e+00
-7.812500e-01 -6.250000e-01 0.000000e+00
-7.031250e-01 -6.250000e-01 0.000000e+00
-6.250000e-01 -6.250000e-01 0.000000e+00
-5.468750e-01 -6.250000e-01 0.000000e+00
-4.687500e-01 -6.250000e-01 0.000000e+00
-3.906250e-01 -6.250000e-01 0.000000e+00
-3.125000e-01 -6.250000e-01 0.000000e+00
-2.343750e-01 -6.250000e-01 0.000000e+00
-1.562500e-01 -6.250000e-01 0.000000e+00
-7.812500e-02 -6.250000e-01 0.000000e+00
0.000000e+00 -6.250000e-01 0.000000e+00
7.812500e-02 -6.250000e-01 0.000000e+00
1.562500e-01 -6.250000e-01 0.000000e+00
2.343750e-01 -6.250000e-01 0.000000e+00
3.125000e-01 -6.250000e-01 0.000000e+00
3.906250e-01 -6.250000e-01 0.000000e+00
4.687500e-01 -6.250000e-01 0.000000e+00
5.468750e-01 -6.250000e-01 0.000000e+00
6.250000e-01 -6.250000e-01 0.000000e+00
7.031250e-01 -6.250000e-01 0.000000e+00
7.812500e-01 -6.250000e-01 0.000000e+00
8.593750e-01 -6.250000e-01 0.000000e+00
9.375000e-01 -6.250000e-01 0.000000e+00
1.015625e+00 -6.250000e-01 0.000000e+00
1.093750e+00 -6.250000e-01 0.000000e+00
1.171875e+00 -6.250000e-01 0.000000e+00
-1.015625e+00 -5.468750e-01 0.000000e+00
-9.375000e-01 -5.468750e-01 0.000000e+00
-8.593750e-01 -5.468750e-01 0.000000e+00
-7.812500e-01 -5.468750e-01 0.000000e+00
-7.031250e-01 -5.468750e-01 0.000000e+00
-6.250000e-01 -5.468750e-01 0.000000e+00
-5.468750e-01 -5.468750e-01 0.000000e+00
-4.687500e-01 -5.468750e-01 0.000000e+00
-3.906250e-01 -5.468750e-01 0.000000e+00
-3.125000e-01 -5.468750e-01 0.000000e+00
-2.343750e-01 -5.468750e-01 0.000000e+00
-1.562500e-01 -5.468750e-01 0.000000e+00
-7.812500e-02 -5.468750e-01 0.000000e+00
0.000000e+00 -5.468750e-01 0.000000e+00
7.812500e-02 -5.468750e-01 0.000000e+00
1.562500e-01 -5.468750e-01 0.000000e+00
2.343750e-01 -5.468750e-01 0.000000e+00
[...]
         <CellData Scalars="count">
            <DataArray type="Float64" Name="solution" format="ascii">
2.155565e-01 3.664771e-01 2.247485e-01 2.040008e-01 2.938592e-01 1.502567e-01 2.571298e-01 6.113328e-01 1.064178e+00 1.318934e+00 1.139435e+00 5.015308e-01 4.629559e-01 8.327933e-01 9.312997e-01 1.118164e+00 1.052024e+00 6.649224e-01 1.852207e-01 2.923794e-01 1.043805e+00 1.766873e+00 2.328435e+00 2.665269e+00 2.671500e+00 2.236679e+00 1.628075e+00 1.517183e+00 1.530140e+00 1.665825e+00 2.284796e+00 2.697017e+00 2.731644e+00 2.547093e+00 2.109455e+00 1.398312e+00 4.870450e-01 8.213710e-01 2.074137e+00 3.049175e+00 3.813897e+00 4.349873e+00 4.618936e+00 4.631254e+00 4.522212e+00 4.478400e+00 4.517032e+00 4.641905e+00 4.835333e+00 4.902732e+00 4.711430e+00 4.237107e+00 3.460288e+00 2.340714e+00 8.534197e-01 5.545888e-01 1.908825e+00 3.332710e+00 4.530800e+00 5.526166e+00 6.305851e+00 5.151740e+00 3.674044e+00 1.528462e+00 4.325302e-01 1.724922e+00 3.287379e+00 4.807943e+00 6.210816e+00 1.195536e+01 1.308211e+01 1.384874e+01 1.424354e+01 1.424450e+01 1.382139e+01 1.294029e+01 1.157650e+01 3.559645e+00 1.815185e+00 1.231967e+00 9.001071e-01 6.404086e-01 4.078590e-01 1.626850e-01 1.069570e+00 2.923853e+00 4.692163e+00 6.414279e+00 1.334233e+01 1.565281e+01 1.758236e+01 1.908303e+01 2.011076e+01 2.062572e+01 2.059631e+01 2.000387e+01 1.884650e+01 1.714141e+01 1.492280e+01 1.223785e+01 4.658790e+00 3.529364e+00 2.646978e+00 1.893019e+00 1.220110e+00 6.072501e-01 1.411534e-01 4.829728e-01 2.107162e+00 4.140455e+00 1.522727e+01 1.838531e+01 2.121789e+01 2.363879e+01 2.555748e+01 2.688692e+01 2.755450e+01 2.751400e+01 2.675459e+01 2.530346e+01 2.322165e+01 2.059542e+01 1.752957e+01 1.415224e+01 4.275248e+00 3.070382e+00 1.970791e+00 1.012681e+00 2.858476e-01 1.043758e+00 3.181273e+00 5.391593e+00 1.193098e+01 1.603118e+01 1.999745e+01 2.375216e+01 2.719386e+01 3.019792e+01 3.262354e+01 3.432944e+01 3.519742e+01 3.515714e+01 3.420282e+01 3.239528e+01 2.984907e+01 2.671093e+01 2.314021e+01 1.929885e+01 1.534764e+01 1.143234e+01 5.787457e+00 4.148452e+00 2.599226e+00 1.159320e+00 2.066774e-01 1.533026e+00 4.168353e+00 1.570341e+01 2.037165e+01 2.497507e+01 2.942799e+01 3.360452e+01 3.733515e+01 4.041308e+01 4.261815e+01 4.375979e+01 4.372585e+01 4.251350e+01 4.023107e+01 3.707020e+01 3.325917e+01 2.902159e+01 2.455359e+01 2.001556e+01 1.552680e+01 5.141562e+00 3.136219e+00 1.099573e+00 5.855095e-01 2.633328e+00 1.427685e+01 1.948410e+01 2.477135e+01 3.009643e+01 3.537267e+01 4.045436e+01 4.512220e+01 4.908026e+01 5.198379e+01 5.351686e+01 5.349243e+01 5.190864e+01 4.895124e+01 4.494006e+01 4.022897e+01 3.512738e+01 2.987167e+01 2.462604e+01 1.949201e+01 1.451678e+01 3.683980e+00 1.243626e+00 1.219305e+00 3.736914e+00 1.189526e+01 1.743866e+01 2.317920e+01 2.912597e+01 3.525677e+01 4.149948e+01 4.770431e+01 5.360940e+01 5.880545e+01 6.274430e+01 6.486320e+01 6.485059e+01 6.270280e+01 5.872953e+01 5.350091e+01 4.757618e+01 4.137518e+01 3.516926e+01 2.911593e+01 2.329047e+01 1.770940e+01 1.234330e+01 4.288411e+00 1.469589e+00 1.742775e+00 1.446177e+01 2.040048e+01 2.666297e+01 3.328851e+01 4.029260e+01 4.764524e+01 5.522952e+01 6.277696e+01 6.272898e+01 5.517504e+01 4.760873e+01 4.030094e+01 3.336842e+01 2.683714e+01 2.068024e+01 1.483521e+01 1.888850e+00 7.858105e-01 3.026745e+00 1.086089e+01 1.675648e+01 2.303622e+01 2.978008e+01 3.706548e+01 4.496602e+01 5.353469e+01 6.275442e+01 7.549033e+01 7.549341e+01 7.549343e+01 7.549037e+01 6.274846e+01 5.355879e+01 4.504286e+01 3.721152e+01 3.000386e+01 2.333386e+01 1.710466e+01 1.120944e+01 3.194484e+00 8.315980e-01 5.767838e-01 2.193820e+00 4.401362e+00 1.263450e+01 1.866489e+01 2.520782e+01 3.235536e+01 4.022460e+01 4.896173e+01 5.874400e+01 7.549338e+01 7.549951e+01 7.550260e+01 7.550262e+01 7.549960e+01 7.549353e+01 5.880623e+01 4.909035e+01 4.042743e+01 3.263148e+01 2.554525e+01 1.903729e+01 1.299965e+01 4.639491e+00 2.335598e+00 6.213941e-01 4.059081e-01 1.607955e+00 3.328354e+00 5.427765e+00 1.396750e+01 2.006486e+01 2.677884e+01 3.421378e+01 4.252141e+01 5.191636e+01 6.270883e+01 7.549029e+01 7.549950e+01 7.550564e+01 7.550873e+01 7.550877e+01 7.550576e+01 7.549971e+01 7.549060e+01 6.279294e+01 5.208901e+01 4.278149e+01 3.455361e+01 2.718200e+01 2.050428e+01 1.440559e+01 5.766126e+00 3.585731e+00 1.760173e+00 4.528704e-01 2.255140e-01 1.061622e+00 2.368833e+00 4.049803e+00 6.107811e+00 1.475288e+01 2.085516e+01 2.763649e+01 3.520966e+01 4.374575e+01 5.349911e+01 6.485260e+01 7.549338e+01 7.550257e+01 7.550871e+01 7.551181e+01 7.551186e+01 7.550887e+01 7.550283e+01 7.549376e+01 6.495403e+01 5.371674e+01 4.407036e+01 3.562925e+01 2.813241e+01 2.139980e+01 1.530950e+01 6.582910e+00 4.444078e+00 2.652380e+00 1.215499e+00 2.644256e-01 4.234595e-01 1.422404e+00 2.737058e+00 4.398909e+00 6.417974e+00 1.493307e+01 2.097382e+01 2.771168e+01 3.525594e+01 4.377340e+01 5.351467e+01 6.485949e+01 7.549340e+01 7.550259e+01 7.550873e+01 7.551184e+01 7.551189e+01 7.550891e+01 7.550289e+01 7.549384e+01 6.498862e+01 5.378567e+01 4.417392e+01 3.577351e+01 2.832792e+01 2.166089e+01 1.565236e+01 7.070953e+00 4.960563e+00 3.169451e+00 1.696483e+00 5.172526e-01 4.303154e-01 1.444320e+00 2.759640e+00 4.390660e+00 6.356257e+00 1.448917e+01 2.040214e+01 2.698977e+01 3.434248e+01 4.259796e+01 5.195961e+01 6.272917e+01 7.549035e+01 7.549955e+01 7.550570e+01 7.550880e+01 7.550886e+01 7.550589e+01 7.549987e+01 7.549083e+01 6.290513e+01 5.229483e+01 4.308592e+01 3.497582e+01 2.775392e+01 2.127050e+01 1.541983e+01 7.235482e+00 5.156954e+00 3.370007e+00 1.861220e+00 5.874810e-01 2.365527e-01 1.143930e+00 2.472333e+00 4.048325e+00 5.932900e+00 1.343102e+01 1.916138e+01 2.551051e+01 3.253697e+01 4.033167e+01 4.902249e+01 5.877458e+01 7.549346e+01 7.549960e+01 7.550271e+01 7.550277e+01 7.549979e+01 7.549379e+01 5.900948e+01 4.942702e+01 4.091346e+01 3.329979e+01 2.644862e+01 2.025285e+01 1.463119e+01 7.097029e+00 5.062922e+00 3.287671e+00 1.775323e+00 5.409419e-01 6.657960e-01 1.937345e+00 3.393604e+00 5.159792e+00 1.179004e+01 1.730619e+01 2.335937e+01 2.996943e+01 3.717584e+01 4.502887e+01 5.356776e+01 6.276805e+01 7.549044e+01 7.549355e+01 7.549361e+01 7.549062e+01 6.290361e+01 5.385365e+01 4.549444e+01 3.784673e+01 3.086632e+01 2.449221e+01 1.866462e+01 1.333138e+01 6.688447e+00 4.711238e+00 2.950957e+00 1.388216e+00 2.901621e-01 2.858282e-01 1.182249e+00 2.415387e+00 4.029934e+00 1.491750e+01 2.065486e+01 2.680764e+01 3.337224e+01 4.034080e+01 4.767126e+01 5.524104e+01 6.277958e+01 6.284110e+01 5.540244e+01 4.797961e+01 4.084151e+01 3.411056e+01 2.782707e+01 2.199068e+01 1.658353e+01 6.048969e+00 4.142490e+00 2.415981e+00 8.317168e-01 3.408781e-01 9.947819e-01 2.473922e+00 4.533914e+00 1.209927e+01 1.753765e+01 2.323359e+01 2.915947e+01 3.527794e+01 4.151138e+01 4.770841e+01 5.360722e+01 5.879912e+01 6.273650e+01 6.485720e+01 6.485225e+01 6.272620e+01 5.880123e+01 5.365566e+01 4.784893e+01 4.179712e+01 3.576833e+01 2.992070e+01 2.433807e+01 1.905911e+01 1.409697e+01 7.189551e+00 5.220279e+00 3.398781e+00 1.685853e+00 3.819312e-01 7.904697e-01 2.744807e+00 1.416665e+01 1.942789e+01 2.474746e+01 3.008808e+01 3.536920e+01 4.044963e+01 4.511308e+01 4.906576e+01 5.196513e+01 5.349838e+01 5.348371e+01 5.192734e+01 4.902438e+01 4.510189e+01 4.051601e+01 3.557303e+01 3.050196e+01 2.545856e+01 2.054136e+01 1.580861e+01 6.069263e+00 4.239778e+00 2.544395e+00 9.066157e-01 9.130272e-01 3.313137e+00 1.555995e+01 2.030712e+01 2.494753e+01 2.941502e+01 3.359398e+01 3.732005e+01 4.038936e+01 4.258464e+01 4.371977e+01 4.368941e+01 4.250004e+01 4.027050e+01 3.720164e+01 3.352634e+01 2.946468e+01 2.519831e+01 2.086362e+01 1.655595e+01 6.618727e+00 4.810473e+00 3.122030e+00 1.573863e+00 3.821830e-01 1.804570e+00 4.728754e+00 1.177317e+01 1.596547e+01 1.997165e+01 2.374100e+01 2.718416e+01 3.018091e+01 3.259200e+01 3.427826e+01 3.512622e+01 3.507383e+01 3.412708e+01 3.236113e+01 2.990503e+01 2.691614e+01 2.355315e+01 1.995605e+01 1.623630e+01 1.247650e+01 6.838310e+00 5.107746e+00 3.438350e+00 1.844305e+00 5.228846e-01 1.284841e+00 3.710929e+00 1.522613e+01 1.838791e+01 2.121736e+01 2.362722e+01 2.552372e+01 2.681906e+01 2.744482e+01 2.736457e+01 2.658269e+01 2.514661e+01 2.314123e+01 2.067659e+01 1.787071e+01 1.483142e+01 5.118660e+00 3.542902e+00 1.964407e+00 5.815258e-01 9.828584e-01 2.907070e+00 4.738794e+00 6.474398e+00 1.336424e+01 1.566902e+01 1.758784e+01 1.905987e+01 2.003487e+01 2.047641e+01 2.036433e+01 1.969893e+01 1.850572e+01 1.683809e+01 1.477639e+01 1.241764e+01 6.123998e+00 4.789552e+00 3.410288e+00 1.953862e+00 5.984560e-01 7.377030e-01 2.202461e+00 3.635113e+00 5.013296e+00 6.314421e+00 1.199706e+01 1.309540e+01 1.378678e+01 1.406505e+01 1.392170e+01 1.334774e+01 1.234398e+01 1.093236e+01 5.123270e+00 4.048552e+00 2.930153e+00 1.758608e+00 5.685985e-01 5.005195e-01 1.531689e+00 2.585426e+00 3.627089e+00 4.630627e+00 5.548744e+00 6.322503e+00 4.375264e+00 3.665033e+00 2.940616e+00 2.018002e+00 1.056882e+00 4.352552e-01 2.113541e-01 8.363329e-01 1.552739e+00 2.271003e+00 3.032321e+00 3.741314e+00 4.302804e+00 4.676696e+00 4.829606e+00 4.749880e+00 4.542446e+00 4.372821e+00 4.226245e+00 4.041755e+00 3.762585e+00 3.309235e+00 2.510616e+00 1.591264e+00 1.231899e+00 9.368263e-01 4.522595e-01 2.139475e-01 5.195821e-01 8.362502e-01 1.492271e+00 2.094374e+00 2.469130e+00 2.666968e+00 2.646069e+00 2.241424e+00 1.626530e+00 1.473137e+00 1.405605e+00 1.335953e+00 1.229843e+00 1.033539e+00 5.350062e-01 3.272276e-01 6.549533e-01 7.992634e-01 8.589536e-01 8.095948e-01 4.535576e-01 6.931404e+01 7.190911e+01 7.323986e+01 7.323690e+01 7.189703e+01 6.928784e+01 7.016214e+01 7.091884e+01 7.548163e+01 7.548311e+01 7.548311e+01 7.548163e+01 7.014055e+01 7.090574e+01 7.091540e+01 7.014903e+01 7.548363e+01 7.548411e+01 7.548368e+01 7.548421e+01 7.090892e+01 7.015445e+01 6.929474e+01 7.548409e+01 7.548358e+01 7.548429e+01 7.548385e+01 6.931323e+01 7.189908e+01 7.548157e+01 7.548196e+01 7.192083e+01 7.323729e+01 7.548307e+01 7.548356e+01 7.325851e+01 7.323885e+01 7.548309e+01 7.548366e+01 7.326666e+01 7.190465e+01 7.548162e+01 7.548366e+01 7.548224e+01 7.548420e+01 7.195380e+01 6.930465e+01 7.015615e+01 7.548417e+01 7.548420e+01 7.548465e+01 7.548456e+01 6.938652e+01 7.021965e+01 7.091919e+01 7.092091e+01 7.548373e+01 7.548174e+01 7.548326e+01 7.548331e+01 7.548400e+01 7.548190e+01 7.096072e+01 7.095087e+01 7.016222e+01 6.931251e+01 7.190730e+01 7.323884e+01 7.323791e+01 7.190600e+01 7.017942e+01 6.932016e+01 6.788205e+00 6.711499e+00 6.519325e+00 6.342969e+00 6.283923e+00 6.377701e+00 6.558032e+00 6.665234e+00 6.574759e+00 6.238007e+00 7.385175e+00 7.234821e+00 7.819565e+00 8.509277e+00 8.699551e+00 8.791992e+00 8.855558e+00 8.910503e+00 8.901814e+00 8.710494e+00 8.253200e+00 6.388154e+00 6.567766e+00 5.607415e+00 7.513933e+00 7.651774e+00 9.729830e+00 9.920050e+00 1.055951e+01 9.345349e+00 9.745470e+00 8.463081e+00 5.488327e+00 5.599833e+00 6.529391e+00 7.593151e+00 7.486854e+00 1.043586e+01 1.067174e+01 8.927700e+00 9.103848e+00 5.729284e+00 6.237863e+00 5.741661e+00 6.308670e+00 9.233349e+00 1.095797e+01 1.098881e+01 9.555244e+00 9.852929e+00 8.400488e+00 5.988132e+00 6.836775e+00 6.329496e+00 8.931801e+00 8.671691e+00 6.888683e+00 6.824031e+00 6.060079e+00 5.474475e+00 1.030305e+01 9.915146e+00 1.035905e+01 1.021384e+01 6.727040e+00 6.291856e+00 5.121357e+00 9.208518e+00 8.735844e+00 9.724130e+00 9.320528e+00 5.926484e+00 5.578523e+00 5.010292e+00 7.801265e+00 8.374027e+00 6.176990e+00 5.438745e+00 4.694365e+00 8.850775e+00 8.334578e+00 9.280742e+00 8.703918e+00 5.017864e+00 5.369089e+00 7.236665e+00 7.543817e+00 5.634047e+00 6.193317e+00 8.267591e+00 8.589406e+00 6.482331e+00 6.961603e+00 9.175471e+00 9.574627e+00 7.332427e+00 7.531109e+00 9.794711e+00 1.032368e+01 8.034259e+00 7.824667e+00 1.005080e+01 1.076070e+01 8.512532e+00 7.810298e+00 9.916268e+00 1.086233e+01 8.736186e+00 7.505079e+00 9.395136e+00 1.063891e+01 8.727945e+00 6.933561e+00 8.536752e+00 9.349685e+00 1.013755e+01 1.119355e+01 8.521381e+00 6.123674e+00 6.069562e+00 9.606799e+00 1.162121e+01 8.148482e+00 8.346240e+00 6.121493e+00 8.145639e+00 8.690762e+00 1.052727e+01 1.107385e+01 8.669540e+00 5.120142e+00 5.140597e+00 8.965519e+00 9.569269e+00 1.123616e+01 1.147376e+01 8.003628e+00 8.041569e+00 5.463981e+00 5.711479e+00 9.981616e+00 1.149833e+01 8.115945e+00 8.043924e+00 6.397416e+00 8.654444e+00 9.119659e+00 1.095372e+01 1.092610e+01 9.755887e+00 9.522769e+00 7.965846e+00 6.020423e+00 6.397303e+00 7.454156e+00 1.096692e+01 1.070588e+01 1.057778e+01 9.905416e+00 7.492368e+00 7.048269e+00 6.895745e+00 7.647685e+00 7.720868e+00 1.047166e+01 9.761911e+00 1.059474e+01 9.262416e+00 9.423110e+00 8.420503e+00 7.088650e+00 6.871705e+00 7.575736e+00 7.430069e+00 7.850881e+00 9.969302e+00 8.592369e+00 8.774785e+00 8.777999e+00 8.676880e+00 8.510671e+00 8.255653e+00 7.864083e+00 8.625831e+00 7.315211e+00 6.229564e+00 6.338358e+00 5.957013e+00 7.274296e+00 6.852182e+00 6.831259e+00 6.642885e+00 6.365526e+00 6.117579e+00 5.951191e+00 5.828894e+00 5.684956e+00 5.454880e+00 5.526872e+00 5.134618e+00 
            </DataArray>
         </CellData>
      </Piece>  
   </UnstructuredGrid>
</VTKFile>
