<VTKFile type="UnstructuredGrid" version="0.1" byte_order="LittleEndian">
   <UnstructuredGrid>
      <Piece  NumberOfPoints="1730"  NumberOfCells="1520">
         <Points>
            <DataArray type="Float32" NumberOfComponents="3" format="ascii">
-3.125000e-01 -1.640625e+00 0.000000e+00
-3.125000e-01 -1.718750e+00 0.000000e+00
-2.343750e-01 -1.718750e+00 0.000000e+00
-2.343750e-01 -1.640625e+00 0.000000e+00
-1.562500e-01 -1.718750e+00 0.000000e+00
-1.562500e-01 -1.640625e+00 0.000000e+00
-7.812500e-02 -1.718750e+00 0.000000e+00
-7.812500e-02 -1.640625e+00 0.000000e+00
0.000000e+00 -1.718750e+00 0.000000e+00
0.000000e+00 -1.640625e+00 0.000000e+00
-4.687500e-01 -1.562500e+00 0.000000e+00
-4.687500e-01 -1.640625e+00 0.000000e+00
-3.906250e-01 -1.640625e+00 0.000000e+00
-3.906250e-01 -1.562500e+00 0.000000e+00
-3.125000e-01 -1.562500e+00 0.000000e+00
-2.343750e-01 -1.562500e+00 0.000000e+00
-1.562500e-01 -1.562500e+00 0.000000e+00
-7.812500e-02 -1.562500e+00 0.000000e+00
0.000000e+00 -1.562500e+00 0.000000e+00
7.812500e-02 -1.640625e+00 0.000000e+00
7.812500e-02 -1.562500e+00 0.000000e+00
-6.250000e-01 -1.484375e+00 0.000000e+00
-6.250000e-01 -1.562500e+00 0.000000e+00
-5.468750e-01 -1.562500e+00 0.000000e+00
-5.468750e-01 -1.484375e+00 0.000000e+00
-4.687500e-01 -1.484375e+00 0.000000e+00
-3.906250e-01 -1.484375e+00 0.000000e+00
-3.125000e-01 -1.484375e+00 0.000000e+00
-2.343750e-01 -1.484375e+00 0.000000e+00
-1.562500e-01 -1.484375e+00 0.000000e+00
-7.812500e-02 -1.484375e+00 0.000000e+00
0.000000e+00 -1.484375e+00 0.000000e+00
7.812500e-02 -1.484375e+00 0.000000e+00
1.562500e-01 -1.562500e+00 0.000000e+00
1.562500e-01 -1.484375e+00 0.000000e+00
3.906250e-01 -1.484375e+00 0.000000e+00
3.906250e-01 -1.562500e+00 0.000000e+00
4.687500e-01 -1.562500e+00 0.000000e+00
4.687500e-01 -1.484375e+00 0.000000e+00
5.468750e-01 -1.562500e+00 0.000000e+00
5.468750e-01 -1.484375e+00 0.000000e+00
6.250000e-01 -1.562500e+00 0.000000e+00
6.250000e-01 -1.484375e+00 0.000000e+00
7.031250e-01 -1.562500e+00 0.000000e+00
7.031250e-01 -1.484375e+00 0.000000e+00
7.812500e-01 -1.562500e+00 0.000000e+00
7.812500e-01 -1.484375e+00 0.000000e+00
8.593750e-01 -1.562500e+00 0.000000e+00
8.593750e-01 -1.484375e+00 0.000000e+00
-7.031250e-01 -1.406250e+00 0.000000e+00
-7.031250e-01 -1.484375e+00 0.000000e+00
-6.250000e-01 -1.406250e+00 0.000000e+00
-5.468750e-01 -1.406250e+00 0.000000e+00
-4.687500e-01 -1.406250e+00 0.000000e+00
-3.906250e-01 -1.406250e+00 0.000000e+00
-3.125000e-01 -1.406250e+00 0.000000e+00
-2.343750e-01 -1.406250e+00 0.000000e+00
-1.562500e-01 -1.406250e+00 0.000000e+00
-7.812500e-02 -1.406250e+00 0.000000e+00
0.000000e+00 -1.406250e+00 0.000000e+00
7.812500e-02 -1.406250e+00 0.000000e+00
1.562500e-01 -1.406250e+00 0.000000e+00
2.343750e-01 -1.484375e+00 0.000000e+00
2.343750e-01 -1.406250e+00 0.000000e+00
3.125000e-01 -1.484375e+00 0.000000e+00
3.125000e-01 -1.406250e+00 0.000000e+00
3.906250e-01 -1.406250e+00 0.000000e+00
4.687500e-01 -1.406250e+00 0.000000e+00
5.468750e-01 -1.406250e+00 0.000000e+00
6.250000e-01 -1.406250e+00 0.000000e+00
7.031250e-01 -1.406250e+00 0.000000e+00
7.812500e-01 -1.406250e+00 0.000000e+00
8.593750e-01 -1.406250e+00 0.000000e+00
-7.812500e-01 -1.328125e+00 0.000000e+00
-7.812500e-01 -1.406250e+00 0.000000e+00
-7.031250e-01 -1.328125e+00 0.000000e+00
-6.250000e-01 -1.328125e+00 0.000000e+00
-5.468750e-01 -1.328125e+00 0.000000e+00
-4.687500e-01 -1.328125e+00 0.000000e+00
-3.906250e-01 -1.328125e+00 0.000000e+00
-3.125000e-01 -1.328125e+00 0.000000e+00
-2.343750e-01 -1.328125e+00 0.000000e+00
-1.562500e-01 -1.328125e+00 0.000000e+00
-7.812500e-02 -1.328125e+00 0.000000e+00
0.000000e+00 -1.328125e+00 0.000000e+00
7.812500e-02 -1.328125e+00 0.000000e+00
1.562500e-01 -1.328125e+00 0.000000e+00
2.343750e-01 -1.328125e+00 0.000000e+00
3.125000e-01 -1.328125e+00 0.000000e+00
3.906250e-01 -1.328125e+00 0.000000e+00
4.687500e-01 -1.328125e+00 0.000000e+00
5.468750e-01 -1.328125e+00 0.000000e+00
6.250000e-01 -1.328125e+00 0.000000e+00
7.031250e-01 -1.328125e+00 0.000000e+00
7.812500e-01 -1.328125e+00 0.000000e+00
8.593750e-01 -1.328125e+00 0.000000e+00
-8.593750e-01 -1.250000e+00 0.000000e+00
-8.593750e-01 -1.328125e+00 0.000000e+00
-7.812500e-01 -1.250000e+00 0.000000e+00
-7.031250e-01 -1.250000e+00 0.000000e+00
-6.250000e-01 -1.250000e+00 0.000000e+00
-5.468750e-01 -1.250000e+00 0.000000e+00
-4.687500e-01 -1.250000e+00 0.000000e+00
-3.906250e-01 -1.250000e+00 0.000000e+00
-3.125000e-01 -1.250000e+00 0.000000e+00
-2.343750e-01 -1.250000e+00 0.000000e+00
-1.562500e-01 -1.250000e+00 0.000000e+00
-7.812500e-02 -1.250000e+00 0.000000e+00
0.000000e+00 -1.250000e+00 0.000000e+00
7.812500e-02 -1.250000e+00 0.000000e+00
1.562500e-01 -1.250000e+00 0.000000e+00
2.343750e-01 -1.250000e+00 0.000000e+00
3.125000e-01 -1.250000e+00 0.000000e+00
3.906250e-01 -1.250000e+00 0.000000e+00
4.687500e-01 -1.250000e+00 0.000000e+00
5.468750e-01 -1.250000e+00 0.000000e+00
6.250000e-01 -1.250000e+00 0.000000e+00
7.031250e-01 -1.250000e+00 0.000000e+00
7.812500e-01 -1.250000e+00 0.000000e+00
8.593750e-01 -1.250000e+00 0.000000e+00
-9.375000e-01 -1.171875e+00 0.000000e+00
-9.375000e-01 -1.250000e+00 0.000000e+00
-8.593750e-01 -1.171875e+00 0.000000e+00
-7.812500e-01 -1.171875e+00 0.000000e+00
-7.031250e-01 -1.171875e+00 0.000000e+00
-6.250000e-01 -1.171875e+00 0.000000e+00
-5.468750e-01 -1.171875e+00 0.000000e+00
-4.687500e-01 -1.171875e+00 0.000000e+00
-3.906250e-01 -1.171875e+00 0.000000e+00
-3.125000e-01 -1.171875e+00 0.000000e+00
-2.343750e-01 -1.171875e+00 0.000000e+00
-1.562500e-01 -1.171875e+00 0.000000e+00
-7.812500e-02 -1.171875e+00 0.000000e+00
0.000000e+00 -1.171875e+00 0.000000e+00
7.812500e-02 -1.171875e+00 0.000000e+00
1.562500e-01 -1.171875e+00 0.000000e+00
2.343750e-01 -1.171875e+00 0.000000e+00
3.125000e-01 -1.171875e+00 0.000000e+00
3.906250e-01 -1.171875e+00 0.000000e+00
4.687500e-01 -1.171875e+00 0.000000e+00
5.468750e-01 -1.171875e+00 0.000000e+00
6.250000e-01 -1.171875e+00 0.000000e+00
7.031250e-01 -1.171875e+00 0.000000e+00
7.812500e-01 -1.171875e+00 0.000000e+00
8.593750e-01 -1.171875e+00 0.000000e+00
9.375000e-01 -1.250000e+00 0.000000e+00
9.375000e-01 -1.171875e+00 0.000000e+00
-1.015625e+00 -1.093750e+00 0.000000e+00
-1.015625e+00 -1.171875e+00 0.000000e+00
-9.375000e-01 -1.093750e+00 0.000000e+00
-8.593750e-01 -1.093750e+00 0.000000e+00
-7.812500e-01 -1.093750e+00 0.000000e+00
-7.031250e-01 -1.093750e+00 0.000000e+00
-6.250000e-01 -1.093750e+00 0.000000e+00
-5.468750e-01 -1.093750e+00 0.000000e+00
-4.687500e-01 -1.093750e+00 0.000000e+00
-3.906250e-01 -1.093750e+00 0.000000e+00
-3.125000e-01 -1.093750e+00 0.000000e+00
-2.343750e-01 -1.093750e+00 0.000000e+00
-1.562500e-01 -1.093750e+00 0.000000e+00
-7.812500e-02 -1.093750e+00 0.000000e+00
0.000000e+00 -1.093750e+00 0.000000e+00
7.812500e-02 -1.093750e+00 0.000000e+00
1.562500e-01 -1.093750e+00 0.000000e+00
2.343750e-01 -1.093750e+00 0.000000e+00
3.125000e-01 -1.093750e+00 0.000000e+00
3.906250e-01 -1.093750e+00 0.000000e+00
4.687500e-01 -1.093750e+00 0.000000e+00
5.468750e-01 -1.093750e+00 0.000000e+00
6.250000e-01 -1.093750e+00 0.000000e+00
7.031250e-01 -1.093750e+00 0.000000e+00
7.812500e-01 -1.093750e+00 0.000000e+00
8.593750e-01 -1.093750e+00 0.000000e+00
9.375000e-01 -1.093750e+00 0.000000e+00
1.015625e+00 -1.171875e+00 0.000000e+00
1.015625e+00 -1.093750e+00 0.000000e+00
1.093750e+00 -1.171875e+00 0.000000e+00
1.093750e+00 -1.093750e+00 0.000000e+00
-1.093750e+00 -1.015625e+00 0.000000e+00
-1.093750e+00 -1.093750e+00 0.000000e+00
-1.015625e+00 -1.015625e+00 0.000000e+00
-9.375000e-01 -1.015625e+00 0.000000e+00
-8.593750e-01 -1.015625e+00 0.000000e+00
-7.812500e-01 -1.015625e+00 0.000000e+00
-7.031250e-01 -1.015625e+00 0.000000e+00
-6.250000e-01 -1.015625e+00 0.000000e+00
-5.468750e-01 -1.015625e+00 0.000000e+00
-4.687500e-01 -1.015625e+00 0.000000e+00
-3.906250e-01 -1.015625e+00 0.000000e+00
-3.125000e-01 -1.015625e+00 0.000000e+00
-2.343750e-01 -1.015625e+00 0.000000e+00
-1.562500e-01 -1.015625e+00 0.000000e+00
-7.812500e-02 -1.015625e+00 0.000000e+00
0.000000e+00 -1.015625e+00 0.000000e+00
7.812500e-02 -1.015625e+00 0.000000e+00
1.562500e-01 -1.015625e+00 0.000000e+00
2.343750e-01 -1.015625e+00 0.000000e+00
3.125000e-01 -1.015625e+00 0.000000e+00
3.906250e-01 -1.015625e+00 0.000000e+00
4.687500e-01 -1.015625e+00 0.000000e+00
5.468750e-01 -1.015625e+00 0.000000e+00
6.250000e-01 -1.015625e+00 0.000000e+00
7.031250e-01 -1.015625e+00 0.000000e+00
7.812500e-01 -1.015625e+00 0.000000e+00
8.593750e-01 -1.015625e+00 0.000000e+00
9.375000e-01 -1.015625e+00 0.000000e+00
1.015625e+00 -1.015625e+00 0.000000e+00
1.093750e+00 -1.015625e+00 0.000000e+00
1.171875e+00 -1.093750e+00 0.000000e+00
1.171875e+00 -1.015625e+00 0.000000e+00
1.250000e+00 -1.093750e+00 0.000000e+00
1.250000e+00 -1.015625e+00 0.000000e+00
1.328125e+00 -1.093750e+00 0.000000e+00
1.328125e+00 -1.015625e+00 0.000000e+00
-1.171875e+00 -9.375000e-01 0.000000e+00
-1.171875e+00 -1.015625e+00 0.000000e+00
-1.093750e+00 -9.375000e-01 0.000000e+00
-1.015625e+00 -9.375000e-01 0.000000e+00
-9.375000e-01 -9.375000e-01 0.000000e+00
-8.593750e-01 -9.375000e-01 0.000000e+00
-7.812500e-01 -9.375000e-01 0.000000e+00
-7.031250e-01 -9.375000e-01 0.000000e+00
-6.250000e-01 -9.375000e-01 0.000000e+00
-5.468750e-01 -9.375000e-01 0.000000e+00
-4.687500e-01 -9.375000e-01 0.000000e+00
-3.906250e-01 -9.375000e-01 0.000000e+00
-3.125000e-01 -9.375000e-01 0.000000e+00
-2.343750e-01 -9.375000e-01 0.000000e+00
-1.562500e-01 -9.375000e-01 0.000000e+00
-7.812500e-02 -9.375000e-01 0.000000e+00
0.000000e+00 -9.375000e-01 0.000000e+00
7.812500e-02 -9.375000e-01 0.000000e+00
1.562500e-01 -9.375000e-01 0.000000e+00
2.343750e-01 -9.375000e-01 0.000000e+00
3.125000e-01 -9.375000e-01 0.000000e+00
3.906250e-01 -9.375000e-01 0.000000e+00
4.687500e-01 -9.375000e-01 0.000000e+00
5.468750e-01 -9.375000e-01 0.000000e+00
6.250000e-01 -9.375000e-01 0.000000e+00
7.031250e-01 -9.375000e-01 0.000000e+00
[...]
         <CellData Scalars="count">
            <DataArray type="Float64" Name="solution" format="ascii">
2.101524e-01 3.784662e-01 3.707843e-01 1.978237e-01 2.927954e-01 6.286157e-01 1.024436e+00 1.267522e+00 1.242305e+00 9.333328e-01 3.626282e-01 3.051711e-01 7.141478e-01 1.304804e+00 1.840375e+00 2.207736e+00 2.403438e+00 2.374732e+00 2.082640e+00 1.461440e+00 5.562765e-01 2.996232e-01 5.056865e-01 4.906743e-01 3.979600e-01 2.598197e-01 9.072238e-02 4.294140e-01 1.270261e+00 2.018427e+00 2.650630e+00 3.179360e+00 3.560985e+00 3.767469e+00 3.769459e+00 3.538750e+00 3.050488e+00 2.255604e+00 1.453980e+00 1.242571e+00 1.220190e+00 1.531709e+00 1.674025e+00 1.537403e+00 1.237613e+00 8.121575e-01 2.848877e-01 4.980983e-01 1.541000e+00 2.550316e+00 3.392171e+00 4.098136e+00 4.669199e+00 5.088590e+00 5.336695e+00 5.395995e+00 5.255627e+00 4.918248e+00 4.432244e+00 3.944520e+00 3.611229e+00 3.412562e+00 3.288322e+00 3.093261e+00 2.736303e+00 2.200712e+00 1.472115e+00 5.327437e-01 5.462570e-01 1.726883e+00 2.926794e+00 3.981212e+00 4.899399e+00 5.677341e+00 6.310612e+00 6.787734e+00 7.095662e+00 7.224688e+00 7.173537e+00 6.957673e+00 6.619181e+00 6.231554e+00 5.855241e+00 5.501185e+00 5.133321e+00 4.689640e+00 4.110830e+00 3.353819e+00 2.356075e+00 9.594761e-01 5.786510e-01 1.858511e+00 3.203505e+00 4.434704e+00 5.553556e+00 6.544981e+00 7.400087e+00 8.107932e+00 8.656624e+00 9.034935e+00 9.235965e+00 9.261291e+00 9.124969e+00 8.856395e+00 8.494130e+00 8.070861e+00 7.596461e+00 7.057530e+00 6.424061e+00 5.661891e+00 4.734080e+00 3.591771e+00 2.147936e+00 6.708710e-01 5.951283e-01 1.939677e+00 3.392778e+00 4.767029e+00 6.060540e+00 7.252199e+00 8.327158e+00 9.269662e+00 1.006452e+01 1.069661e+01 1.115286e+01 1.142515e+01 1.151322e+01 1.142693e+01 1.118567e+01 1.081400e+01 1.033301e+01 9.753816e+00 9.075376e+00 8.287697e+00 7.376011e+00 6.324661e+00 5.118826e+00 3.767385e+00 2.307554e+00 1.095818e+00 4.419111e-01 5.928962e-01 1.965983e+00 3.491838e+00 4.977183e+00 6.416969e+00 7.786796e+00 9.068285e+00 1.024154e+01 1.128695e+01 1.218417e+01 1.291322e+01 1.345613e+01 1.380024e+01 1.394132e+01 1.388470e+01 1.364492e+01 1.324119e+01 1.269132e+01 1.200872e+01 1.120191e+01 1.027500e+01 9.230206e+00 8.070653e+00 6.807061e+00 5.468074e+00 4.125258e+00 2.897611e+00 1.788317e+00 8.882405e-01 5.119231e-01 2.029193e-01 5.618503e-01 1.922648e+00 3.488275e+00 5.055346e+00 6.613086e+00 8.135218e+00 9.602119e+00 1.099227e+01 1.228374e+01 1.345242e+01 1.344814e+01 1.238039e+01 1.119998e+01 9.924177e+00 8.575457e+00 7.188489e+00 5.813573e+00 4.509708e+00 3.318870e+00 2.299098e+00 1.485555e+00 7.714486e-01 1.902679e-01 4.423388e-01 1.752638e+00 3.348792e+00 4.981868e+00 6.634584e+00 8.282977e+00 9.909387e+00 1.149371e+01 1.301475e+01 2.005272e+01 2.152922e+01 2.253638e+01 2.303807e+01 2.301870e+01 2.248463e+01 2.146300e+01 1.999813e+01 1.326606e+01 1.185240e+01 1.038562e+01 8.898116e+00 7.427460e+00 6.011255e+00 4.681934e+00 3.466117e+00 2.366576e+00 1.361048e+00 4.377362e-01 1.112358e+00 2.972467e+00 4.717927e+00 6.462201e+00 8.216596e+00 9.975383e+00 1.172505e+01 1.344830e+01 2.087096e+01 2.347286e+01 2.569007e+01 2.744019e+01 2.864998e+01 2.926486e+01 2.925748e+01 2.863218e+01 2.742423e+01 2.569411e+01 2.351814e+01 2.097909e+01 1.383468e+01 1.221734e+01 1.059132e+01 8.985437e+00 7.425086e+00 5.929443e+00 4.508264e+00 3.158845e+00 1.867259e+00 6.169467e-01 6.488919e-01 2.315552e+00 4.232601e+00 6.081821e+00 7.929063e+00 9.793751e+00 1.167603e+01 2.280109e+01 2.613802e+01 2.917253e+01 3.179592e+01 3.389466e+01 3.536316e+01 3.611937e+01 3.611951e+01 3.536668e+01 3.391033e+01 3.183683e+01 2.925433e+01 2.627708e+01 2.301328e+01 1.226378e+01 1.049687e+01 8.772850e+00 7.099871e+00 5.476877e+00 3.893015e+00 2.331328e+00 7.769623e-01 5.605307e-01 1.974190e+00 3.711798e+00 5.548276e+00 7.441511e+00 9.375488e+00 1.135187e+01 1.336751e+01 1.968117e+01 2.379965e+01 2.783833e+01 3.170520e+01 3.528238e+01 3.842762e+01 4.098334e+01 4.279515e+01 4.373803e+01 4.374252e+01 4.281100e+01 4.101721e+01 3.848948e+01 3.538412e+01 3.185927e+01 2.805677e+01 2.409360e+01 2.006097e+01 1.390822e+01 1.196412e+01 1.006798e+01 8.218677e+00 6.405067e+00 4.605324e+00 2.790141e+00 9.370762e-01 4.738221e-01 1.710494e+00 3.269780e+00 4.980721e+00 6.822513e+00 8.760393e+00 1.077877e+01 1.286983e+01 2.378326e+01 2.841760e+01 3.304289e+01 3.755783e+01 4.182134e+01 4.564911e+01 4.882080e+01 5.110570e+01 5.230749e+01 5.231393e+01 5.112702e+01 4.886267e+01 4.571979e+01 4.193037e+01 3.771479e+01 3.325643e+01 2.869488e+01 2.412950e+01 1.338197e+01 1.131460e+01 9.299883e+00 7.317887e+00 5.333773e+00 3.292680e+00 1.129786e+00 3.347706e-01 1.394557e+00 2.803882e+00 4.384735e+00 6.125001e+00 8.002162e+00 1.000078e+01 1.210928e+01 2.275817e+01 2.782121e+01 3.303925e+01 3.835106e+01 4.365437e+01 4.878953e+01 5.352429e+01 5.755064e+01 6.051388e+01 6.209230e+01 6.209859e+01 6.053483e+01 5.759201e+01 5.359403e+01 4.889614e+01 4.380546e+01 3.855252e+01 3.329457e+01 2.813091e+01 2.311889e+01 1.250684e+01 1.034607e+01 8.229120e+00 6.115444e+00 3.927232e+00 1.472867e+00 7.836124e-01 2.210009e+00 3.706651e+00 5.345173e+00 7.131242e+00 9.061992e+00 1.113182e+01 1.333690e+01 2.082071e+01 2.611540e+01 3.169963e+01 3.756043e+01 4.365814e+01 4.990674e+01 5.614455e+01 6.209853e+01 6.734776e+01 7.133231e+01 7.348176e+01 7.348570e+01 7.134689e+01 6.738037e+01 6.215863e+01 5.624094e+01 5.004600e+01 4.384392e+01 3.779314e+01 3.197590e+01 2.642717e+01 2.115355e+01 1.362876e+01 1.134584e+01 9.132734e+00 6.956208e+00 4.771171e+00 2.517415e+00 6.593761e-01 3.254936e-01 1.439079e+00 2.904262e+00 4.464698e+00 6.155724e+00 7.993107e+00 9.982826e+00 1.212801e+01 2.346805e+01 2.918081e+01 3.529725e+01 4.183720e+01 4.880207e+01 5.615110e+01 6.375881e+01 7.134867e+01 7.139010e+01 6.383835e+01 5.627480e+01 4.897169e+01 4.205051e+01 3.554790e+01 2.945763e+01 2.375367e+01 1.227462e+01 9.996815e+00 7.804434e+00 5.686747e+00 3.677830e+00 1.868818e+00 5.032382e-01 7.088512e-01 2.051463e+00 3.501642e+00 5.088663e+00 6.818585e+00 8.702118e+00 1.074833e+01 1.296579e+01 2.010017e+01 2.573791e+01 3.184167e+01 3.846856e+01 4.568262e+01 5.354832e+01 6.211227e+01 7.135339e+01 8.415403e+01 8.415715e+01 8.415720e+01 8.415418e+01 7.141010e+01 6.221870e+01 5.370398e+01 4.588277e+01 3.870455e+01 3.210055e+01 2.600149e+01 2.034368e+01 1.309950e+01 1.077684e+01 8.581801e+00 6.516822e+00 4.606502e+00 2.904708e+00 1.448212e+00 3.792466e-01 2.522187e-01 1.193525e+00 2.511256e+00 3.966680e+00 5.569754e+00 7.327423e+00 9.248402e+00 1.134281e+01 1.362286e+01 2.165117e+01 2.754318e+01 3.398067e+01 4.105306e+01 4.887409e+01 5.758712e+01 6.736763e+01 8.415712e+01 8.416328e+01 8.416640e+01 8.416645e+01 8.416344e+01 8.415739e+01 6.745750e+01 5.773360e+01 4.906966e+01 4.128720e+01 3.423958e+01 2.780922e+01 2.190208e+01 1.378675e+01 1.143099e+01 9.233811e+00 7.195805e+00 5.331648e+00 3.665788e+00 2.229354e+00 1.041412e+00 2.308338e-01 4.797691e-01 1.555937e+00 2.833248e+00 4.284150e+00 5.896481e+00 7.673204e+00 9.621567e+00 1.175219e+01 1.407951e+01 2.272932e+01 2.880620e+01 3.548881e+01 4.289388e+01 5.117927e+01 6.056284e+01 7.135666e+01 8.415411e+01 8.416332e+01 8.416949e+01 8.417260e+01 8.417265e+01 8.416966e+01 8.416361e+01 8.415450e+01 7.143427e+01 6.070772e+01 5.138074e+01 4.313984e+01 3.576528e+01 2.909683e+01 2.301495e+01 1.430658e+01 1.192844e+01 9.728817e+00 7.703646e+00 5.857385e+00 4.201013e+00 2.745704e+00 1.502146e+00 4.652200e-01 5.469170e-01 1.699341e+00 2.989660e+00 4.441481e+00 6.059553e+00 7.847815e+00 9.813097e+00 1.196576e+01 1.432096e+01 2.329286e+01 2.946826e+01 3.628114e+01 4.386409e+01 5.240091e+01 6.215388e+01 7.351039e+01 8.415727e+01 8.416648e+01 8.417264e+01 8.417575e+01 8.417581e+01 8.417282e+01 8.416678e+01 8.415769e+01 7.358512e+01 6.230781e+01 5.262031e+01 4.413575e+01 3.659145e+01 2.980263e+01 2.363530e+01 1.463602e+01 1.224889e+01 1.005100e+01 8.033429e+00 6.193928e+00 4.533517e+00 3.052140e+00 1.739663e+00 5.619329e-01 5.454135e-01 1.694675e+00 2.982137e+00 4.432916e+00 6.052885e+00 7.845995e+00 9.818021e+00 1.197790e+01 1.433945e+01 2.332083e+01 2.949849e+01 3.631162e+01 4.389300e+01 5.242643e+01 6.217387e+01 7.352161e+01 8.415736e+01 8.416657e+01 8.417273e+01 8.417585e+01 8.417592e+01 8.417293e+01 8.416690e+01 8.415782e+01 7.360850e+01 6.235041e+01 5.267685e+01 4.420383e+01 3.667031e+01 2.989259e+01 2.373754e+01 1.476040e+01 1.238156e+01 1.019394e+01 8.185855e+00 6.351035e+00 4.685951e+00 3.185313e+00 1.834773e+00 5.970358e-01 4.756506e-01 1.541813e+00 2.808822e+00 4.255256e+00 5.873372e+00 7.665770e+00 9.635905e+00 1.178952e+01 1.413694e+01 2.281543e+01 2.889890e+01 3.558208e+01 4.298236e+01 5.125787e+01 6.062580e+01 7.139575e+01 8.415438e+01 8.416360e+01 8.416977e+01 8.417290e+01 8.417297e+01 8.416999e+01 8.416396e+01 8.415487e+01 7.151473e+01 6.084035e+01 5.155254e+01 4.334478e+01 3.600151e+01 2.936551e+01 2.331976e+01 1.467572e+01 1.232430e+01 1.015830e+01 8.165457e+00 6.338297e+00 4.672422e+00 3.164975e+00 1.810378e+00 5.852638e-01 2.485657e-01 1.171222e+00 2.463541e+00 3.906418e+00 5.519598e+00 7.308195e+00 9.271075e+00 1.140842e+01 1.372527e+01 2.180218e+01 2.770438e+01 3.414200e+01 4.120606e+01 4.901126e+01 5.770075e+01 6.744784e+01 8.415758e+01 8.416376e+01 8.416689e+01 8.416697e+01 8.416400e+01 8.415797e+01 6.761949e+01 5.796828e+01 4.936233e+01 4.163068e+01 3.463195e+01 2.825287e+01 2.240352e+01 1.438841e+01 1.208268e+01 9.950278e+00 7.979929e+00 6.164452e+00 4.500508e+00 2.989235e+00 1.647573e+00 5.091964e-01 6.806171e-01 1.967171e+00 3.384507e+00 4.989593e+00 6.776551e+00 8.732730e+00 1.084884e+01 1.312387e+01 2.032784e+01 2.597763e+01 3.207942e+01 3.869338e+01 4.588575e+01 5.372196e+01 6.224797e+01 7.144026e+01 8.415468e+01 8.415784e+01 8.415792e+01 8.415495e+01 7.157878e+01 6.248766e+01 5.405465e+01 4.630315e+01 3.918837e+01 3.264662e+01 2.661363e+01 2.103118e+01 1.391258e+01 1.166854e+01 9.580892e+00 7.640095e+00 5.839846e+00 4.177189e+00 2.652477e+00 1.262824e+00 2.670989e-01 3.022931e-01 1.293859e+00 2.671618e+00 4.275702e+00 6.077058e+00 8.035742e+00 1.013158e+01 1.235837e+01 2.380027e+01 2.950581e+01 3.560243e+01 4.211384e+01 4.904388e+01 5.635292e+01 6.391554e+01 7.145517e+01 7.158559e+01 6.413828e+01 5.666933e+01 4.945019e+01 4.260475e+01 3.617324e+01 3.015368e+01 2.452514e+01 1.326807e+01 1.109853e+01 9.065190e+00 7.160298e+00 5.378206e+00 3.715987e+00 2.180212e+00 7.530793e-01 4.569419e-01 1.710082e+00 3.369148e+00 5.222228e+00 7.204629e+00 9.284645e+00 1.145946e+01 1.373354e+01 2.126292e+01 2.654002e+01 3.209369e+01 3.791660e+01 4.397310e+01 5.017975e+01 5.637654e+01 6.229196e+01 6.750760e+01 7.146809e+01 7.361000e+01 7.363047e+01 7.153735e+01 6.764297e+01 6.250891e+01 5.668312e+01 5.057722e+01 4.445865e+01 3.848596e+01 3.274329e+01 2.726870e+01 2.207344e+01 1.468462e+01 1.247814e+01 1.039261e+01 8.421362e+00 6.558173e+00 4.797467e+00 3.133407e+00 1.550154e+00 3.483811e-01 5.958220e-01 2.241433e+00 4.254020e+00 6.277965e+00 8.344342e+00 1.046180e+01 1.264036e+01 2.329509e+01 2.831121e+01 3.347806e+01 3.873972e+01 4.399758e+01 4.909450e+01 5.380009e+01 5.780835e+01 6.076719e+01 6.235805e+01 6.239639e+01 6.088508e+01 5.801225e+01 5.409577e+01 4.948414e+01 4.447937e+01 3.930913e+01 3.412973e+01 2.904098e+01 2.410203e+01 1.365829e+01 1.156725e+01 9.572475e+00 7.669636e+00 5.853589e+00 4.119089e+00 2.468029e+00 8.707182e-01 1.182026e+00 3.263852e+00 5.307526e+00 7.353355e+00 9.403284e+00 1.147478e+01 1.358421e+01 2.437314e+01 2.893771e+01 3.350032e+01 3.796397e+01 4.219022e+01 4.599631e+01 4.916282e+01 5.145965e+01 5.269081e+01 5.274373e+01 5.161887e+01 4.942897e+01 4.636854e+01 4.266499e+01 3.853494e+01 3.415928e+01 2.967619e+01 2.518438e+01 1.457775e+01 1.253241e+01 1.055990e+01 8.660223e+00 6.831124e+00 5.067819e+00 3.362068e+00 1.693398e+00 3.892136e-01 5.175863e-01 2.232413e+00 4.343445e+00 6.359646e+00 8.322947e+00 1.027040e+01 1.222665e+01 1.420498e+01 2.036973e+01 2.439361e+01 2.835291e+01 3.216005e+01 3.569949e+01 3.882968e+01 4.139253e+01 4.323221e+01 4.422158e+01 4.428846e+01 4.343182e+01 4.172154e+01 3.928197e+01 3.626588e+01 3.282867e+01 2.911023e+01 2.522603e+01 2.126564e+01 1.518285e+01 1.323629e+01 1.133331e+01 9.479333e+00 7.677037e+00 5.926233e+00 4.223145e+00 2.566195e+00 9.174975e-01 1.302499e+00 3.483889e+00 5.417932e+00 7.255633e+00 9.055572e+00 1.084554e+01 1.263872e+01 2.335281e+01 2.661930e+01 2.961497e+01 3.223054e+01 3.435017e+01 3.586458e+01 3.668717e+01 3.676899e+01 3.610780e+01 3.474811e+01 3.277212e+01 3.028503e+01 2.739938e+01 2.422243e+01 1.363711e+01 1.185073e+01 1.008477e+01 8.346639e+00 6.641707e+00 4.973188e+00 3.336361e+00 1.705190e+00 3.995094e-01 9.705604e-01 2.824623e+00 4.560338e+00 6.222399e+00 7.848289e+00 9.459534e+00 1.106543e+01 1.266570e+01 1.425099e+01 2.134669e+01 2.390932e+01 2.612834e+01 2.791681e+01 2.919523e+01 2.990159e+01 3.000056e+01 2.948875e+01 2.839482e+01 2.677450e+01 2.470173e+01 2.225902e+01 1.530698e+01 1.370702e+01 1.208083e+01 1.044417e+01 8.808128e+00 7.180499e+00 5.568948e+00 3.984832e+00 2.441700e+00 8.844526e-01 7.708023e-01 2.292524e+00 3.773367e+00 5.222403e+00 6.653780e+00 8.077282e+00 9.496316e+00 1.090762e+01 1.230152e+01 1.366209e+01 2.045779e+01 2.199647e+01 2.310252e+01 2.372890e+01 2.384843e+01 2.345645e+01 2.257102e+01 2.123064e+01 1.480907e+01 1.343747e+01 1.200611e+01 1.053424e+01 9.036461e+00 7.522842e+00 5.999327e+00 4.469208e+00 2.952685e+00 1.503092e+00 3.675677e-01 6.003884e-01 1.805365e+00 3.018799e+00 4.239175e+00 5.465992e+00 6.698441e+00 7.933806e+00 9.165953e+00 1.038442e+01 1.157519e+01 1.272035e+01 1.379797e+01 1.498139e+01 1.396799e+01 1.284167e+01 1.162696e+01 1.034494e+01 9.012810e+00 7.643832e+00 6.247012e+00 4.825232e+00 3.368996e+00 1.837888e+00 5.072645e-01 4.228287e-01 1.309818e+00 2.257449e+00 3.249296e+00 4.272479e+00 5.315881e+00 6.373901e+00 7.437326e+00 8.494385e+00 9.533225e+00 1.054010e+01 1.149627e+01 1.237881e+01 1.316362e+01 1.382614e+01 1.434252e+01 1.469079e+01 1.485311e+01 1.481949e+01 1.458941e+01 1.417066e+01 1.357804e+01 1.283115e+01 1.195177e+01 1.096209e+01 9.883090e+00 8.733188e+00 7.527593e+00 6.278125e+00 4.994226e+00 3.681535e+00 2.335887e+00 8.772396e-01 1.842977e-01 7.498719e-01 1.452737e+00 2.228950e+00 3.059600e+00 3.918187e+00 4.807617e+00 5.715586e+00 6.622197e+00 7.522141e+00 8.409954e+00 9.267957e+00 1.007191e+01 1.079733e+01 1.142049e+01 1.191741e+01 1.226632e+01 1.245035e+01 1.245968e+01 1.229241e+01 1.195395e+01 1.145572e+01 1.081349e+01 1.004562e+01 9.171413e+00 8.209551e+00 7.176603e+00 6.085683e+00 4.946806e+00 3.768297e+00 2.566446e+00 1.358053e+00 3.457001e-01 2.038104e-01 5.474428e-01 1.157863e+00 1.827467e+00 2.481810e+00 3.223839e+00 3.998032e+00 4.756542e+00 5.520841e+00 6.308030e+00 7.094365e+00 7.843362e+00 8.533333e+00 9.141377e+00 9.641132e+00 1.000798e+01 1.022365e+01 1.027771e+01 1.016760e+01 9.897723e+00 9.477811e+00 8.921632e+00 8.245708e+00 7.468020e+00 6.606526e+00 5.677255e+00 4.691892e+00 3.654718e+00 2.571410e+00 1.443605e+00 4.287821e-01 2.718596e-01 6.050191e-01 9.182044e-01 1.615632e+00 2.312713e+00 2.882496e+00 3.485231e+00 4.208077e+00 4.960617e+00 5.673830e+00 6.349785e+00 6.971281e+00 7.498840e+00 7.902111e+00 8.159971e+00 8.261035e+00 8.203477e+00 7.992187e+00 7.636642e+00 7.149772e+00 6.547537e+00 5.848165e+00 5.070581e+00 4.232729e+00 3.348514e+00 2.414458e+00 1.401179e+00 4.344049e-01 3.595161e-01 7.391418e-01 9.747343e-01 1.281280e+00 2.091955e+00 2.884078e+00 3.530229e+00 4.219716e+00 4.896787e+00 5.482133e+00 5.943550e+00 6.254631e+00 6.404135e+00 6.393775e+00 6.231494e+00 5.927279e+00 5.493688e+00 4.946730e+00 4.306160e+00 3.594626e+00 2.831550e+00 2.052820e+00 1.239462e+00 4.040076e-01 4.580670e-01 9.330403e-01 1.286767e+00 2.108292e+00 2.923296e+00 3.589118e+00 4.137937e+00 4.513498e+00 4.707827e+00 4.736287e+00 4.613060e+00 4.348059e+00 3.951448e+00 3.440177e+00 2.834183e+00 2.173860e+00 1.444704e+00 7.448199e-01 3.062839e-01 4.729881e-01 1.028471e+00 1.806445e+00 2.519780e+00 2.955251e+00 3.177214e+00 3.229314e+00 3.136549e+00 2.901749e+00 2.524010e+00 2.032911e+00 1.415089e+00 7.740623e-01 3.380934e-01 4.468522e-01 1.162023e+00 1.611984e+00 1.811807e+00 1.863706e+00 1.799612e+00 1.606728e+00 1.209738e+00 7.069343e-01 3.218169e-01 2.527660e-01 4.971704e-01 5.849925e-01 6.069947e-01 5.828522e-01 4.983043e-01 2.581134e-01 7.793354e+01 8.055086e+01 8.189369e+01 8.189470e+01 8.055568e+01 7.794724e+01 7.878710e+01 7.955209e+01 8.414527e+01 8.414680e+01 8.414684e+01 8.414541e+01 7.880220e+01 7.956871e+01 7.955288e+01 7.879060e+01 8.414727e+01 8.414778e+01 8.414749e+01 8.414805e+01 7.957197e+01 7.881632e+01 7.794012e+01 8.414780e+01 8.414733e+01 8.414815e+01 8.414773e+01 7.797269e+01 8.055728e+01 8.414537e+01 8.414584e+01 8.057896e+01 8.189970e+01 8.414695e+01 8.414746e+01 8.191577e+01 8.190248e+01 8.414704e+01 8.414760e+01 8.192148e+01 8.056958e+01 8.414564e+01 8.414773e+01 8.414624e+01 8.414829e+01 8.060396e+01 7.797205e+01 7.882353e+01 8.414828e+01 8.414838e+01 8.414882e+01 8.414884e+01 7.803629e+01 7.888079e+01 7.958638e+01 7.958884e+01 8.414795e+01 8.414605e+01 8.414764e+01 8.414774e+01 8.414835e+01 8.414633e+01 7.963582e+01 7.963691e+01 7.883434e+01 7.799199e+01 8.058887e+01 8.192123e+01 8.192617e+01 8.061004e+01 7.888528e+01 7.804392e+01 1.447788e+01 1.491663e+01 1.523775e+01 1.543531e+01 1.550856e+01 1.546145e+01 1.531113e+01 1.507743e+01 1.476749e+01 1.438049e+01 1.439783e+01 1.469196e+01 1.506103e+01 1.664921e+01 1.728203e+01 1.770748e+01 1.789991e+01 1.786347e+01 1.761110e+01 1.715907e+01 1.653958e+01 1.464993e+01 1.509980e+01 1.452577e+01 1.449143e+01 1.466376e+01 1.706024e+01 1.774818e+01 1.820040e+01 1.769895e+01 1.819971e+01 1.713580e+01 1.468232e+01 1.493630e+01 1.388073e+01 1.466076e+01 1.473060e+01 1.769929e+01 1.793107e+01 1.785532e+01 1.814283e+01 1.498451e+01 1.513224e+01 1.434522e+01 1.386314e+01 1.671510e+01 1.828883e+01 1.841709e+01 1.857044e+01 1.874695e+01 1.711634e+01 1.436219e+01 1.468154e+01 1.457015e+01 1.669377e+01 1.714027e+01 1.518071e+01 1.507214e+01 1.455545e+01 1.436573e+01 1.837308e+01 1.822485e+01 1.880411e+01 1.865619e+01 1.504158e+01 1.480991e+01 1.427069e+01 1.784892e+01 1.761292e+01 1.826230e+01 1.799891e+01 1.466974e+01 1.496435e+01 1.462640e+01 1.697962e+01 1.731642e+01 1.528525e+01 1.488343e+01 1.444793e+01 1.816763e+01 1.774598e+01 1.844458e+01 1.799243e+01 1.466361e+01 1.497120e+01 1.669869e+01 1.691170e+01 1.515903e+01 1.538949e+01 1.741893e+01 1.763921e+01 1.558807e+01 1.568861e+01 1.793652e+01 1.819897e+01 1.593477e+01 1.585558e+01 1.821229e+01 1.854631e+01 1.618066e+01 1.587749e+01 1.823696e+01 1.866371e+01 1.630431e+01 1.575672e+01 1.801322e+01 1.854525e+01 1.629619e+01 1.551152e+01 1.755558e+01 1.819651e+01 1.616453e+01 1.516012e+01 1.690623e+01 1.802492e+01 1.764932e+01 1.880983e+01 1.591997e+01 1.472050e+01 1.496226e+01 1.850527e+01 1.931842e+01 1.557350e+01 1.584913e+01 1.539227e+01 1.742724e+01 1.814871e+01 1.830664e+01 1.903619e+01 1.630758e+01 1.481477e+01 1.498395e+01 1.844427e+01 1.888435e+01 1.933644e+01 1.977866e+01 1.577059e+01 1.594365e+01 1.526224e+01 1.532684e+01 1.906808e+01 1.996708e+01 1.622033e+01 1.628541e+01 1.549314e+01 1.745722e+01 1.747160e+01 1.910177e+01 2.005046e+01 1.839505e+01 1.843177e+01 1.645588e+01 1.472168e+01 1.473197e+01 1.552283e+01 1.893422e+01 1.851065e+01 1.990434e+01 1.951076e+01 1.653475e+01 1.570627e+01 1.573342e+01 1.538129e+01 1.532730e+01 1.822310e+01 1.750682e+01 1.859588e+01 1.954679e+01 1.923873e+01 1.854010e+01 1.643528e+01 1.640561e+01 1.505893e+01 1.489128e+01 1.546624e+01 1.812100e+01 1.701028e+01 1.771497e+01 1.826700e+01 1.862522e+01 1.877034e+01 1.869062e+01 1.838388e+01 1.903933e+01 1.787401e+01 1.657221e+01 1.617512e+01 1.602689e+01 1.503007e+01 1.478479e+01 1.524488e+01 1.564922e+01 1.598849e+01 1.624816e+01 1.640538e+01 1.644272e+01 1.635893e+01 1.615705e+01 1.612205e+01 1.584263e+01 
            </DataArray>
         </CellData>
      </Piece>  
   </UnstructuredGrid>
</VTKFile>
