<VTKFile type="UnstructuredGrid" version="0.1" byte_order="LittleEndian">
   <UnstructuredGrid>
      <Piece  NumberOfPoints="16641"  NumberOfCells="16384">
         <Points>
            <DataArray type="Float32" NumberOfComponents="3" format="ascii">
-1.000000e+01 -1.584375e+01 0.000000e+00
-1.000000e+01 -1.600000e+01 0.000000e+00
-9.843750e+00 -1.600000e+01 0.000000e+00
-9.843750e+00 -1.584375e+01 0.000000e+00
-9.687500e+00 -1.600000e+01 0.000000e+00
-9.687500e+00 -1.584375e+01 0.000000e+00
-9.531250e+00 -1.600000e+01 0.000000e+00
-9.531250e+00 -1.584375e+01 0.000000e+00
-9.375000e+00 -1.600000e+01 0.000000e+00
-9.375000e+00 -1.584375e+01 0.000000e+00
-9.218750e+00 -1.600000e+01 0.000000e+00
-9.218750e+00 -1.584375e+01 0.000000e+00
-9.062500e+00 -1.600000e+01 0.000000e+00
-9.062500e+00 -1.584375e+01 0.000000e+00
-8.906250e+00 -1.600000e+01 0.000000e+00
-8.906250e+00 -1.584375e+01 0.000000e+00
-8.750000e+00 -1.600000e+01 0.000000e+00
-8.750000e+00 -1.584375e+01 0.000000e+00
-8.593750e+00 -1.600000e+01 0.000000e+00
-8.593750e+00 -1.584375e+01 0.000000e+00
-8.437500e+00 -1.600000e+01 0.000000e+00
-8.437500e+00 -1.584375e+01 0.000000e+00
-8.281250e+00 -1.600000e+01 0.000000e+00
-8.281250e+00 -1.584375e+01 0.000000e+00
-8.125000e+00 -1.600000e+01 0.000000e+00
-8.125000e+00 -1.584375e+01 0.000000e+00
-7.968750e+00 -1.600000e+01 0.000000e+00
-7.968750e+00 -1.584375e+01 0.000000e+00
-7.812500e+00 -1.600000e+01 0.000000e+00
-7.812500e+00 -1.584375e+01 0.000000e+00
-7.656250e+00 -1.600000e+01 0.000000e+00
-7.656250e+00 -1.584375e+01 0.000000e+00
-7.500000e+00 -1.600000e+01 0.000000e+00
-7.500000e+00 -1.584375e+01 0.000000e+00
-7.343750e+00 -1.600000e+01 0.000000e+00
-7.343750e+00 -1.584375e+01 0.000000e+00
-7.187500e+00 -1.600000e+01 0.000000e+00
-7.187500e+00 -1.584375e+01 0.000000e+00
-7.031250e+00 -1.600000e+01 0.000000e+00
-7.031250e+00 -1.584375e+01 0.000000e+00
-6.875000e+00 -1.600000e+01 0.000000e+00
-6.875000e+00 -1.584375e+01 0.000000e+00
-6.718750e+00 -1.600000e+01 0.000000e+00
-6.718750e+00 -1.584375e+01 0.000000e+00
-6.562500e+00 -1.600000e+01 0.000000e+00
-6.562500e+00 -1.584375e+01 0.000000e+00
-6.406250e+00 -1.600000e+01 0.000000e+00
-6.406250e+00 -1.584375e+01 0.000000e+00
-6.250000e+00 -1.600000e+01 0.000000e+00
-6.250000e+00 -1.584375e+01 0.000000e+00
-6.093750e+00 -1.600000e+01 0.000000e+00
-6.093750e+00 -1.584375e+01 0.000000e+00
-5.937500e+00 -1.600000e+01 0.000000e+00
-5.937500e+00 -1.584375e+01 0.000000e+00
-5.781250e+00 -1.600000e+01 0.000000e+00
-5.781250e+00 -1.584375e+01 0.000000e+00
-5.625000e+00 -1.600000e+01 0.000000e+00
-5.625000e+00 -1.584375e+01 0.000000e+00
-5.468750e+00 -1.600000e+01 0.000000e+00
-5.468750e+00 -1.584375e+01 0.000000e+00
-5.312500e+00 -1.600000e+01 0.000000e+00
-5.312500e+00 -1.584375e+01 0.000000e+00
-5.156250e+00 -1.600000e+01 0.000000e+00
-5.156250e+00 -1.584375e+01 0.000000e+00
-5.000000e+00 -1.600000e+01 0.000000e+00
-5.000000e+00 -1.584375e+01 0.000000e+00
-4.843750e+00 -1.600000e+01 0.000000e+00
-4.843750e+00 -1.584375e+01 0.000000e+00
-4.687500e+00 -1.600000e+01 0.000000e+00
-4.687500e+00 -1.584375e+01 0.000000e+00
-4.531250e+00 -1.600000e+01 0.000000e+00
-4.531250e+00 -1.584375e+01 0.000000e+00
-4.375000e+00 -1.600000e+01 0.000000e+00
-4.375000e+00 -1.584375e+01 0.000000e+00
-4.218750e+00 -1.600000e+01 0.000000e+00
-4.218750e+00 -1.584375e+01 0.000000e+00
-4.062500e+00 -1.600000e+01 0.000000e+00
-4.062500e+00 -1.584375e+01 0.000000e+00
-3.906250e+00 -1.600000e+01 0.000000e+00
-3.906250e+00 -1.584375e+01 0.000000e+00
-3.750000e+00 -1.600000e+01 0.000000e+00
-3.750000e+00 -1.584375e+01 0.000000e+00
-3.593750e+00 -1.600000e+01 0.000000e+00
-3.593750e+00 -1.584375e+01 0.000000e+00
-3.437500e+00 -1.600000e+01 0.000000e+00
-3.437500e+00 -1.584375e+01 0.000000e+00
-3.281250e+00 -1.600000e+01 0.000000e+00
-3.281250e+00 -1.584375e+01 0.000000e+00
-3.125000e+00 -1.600000e+01 0.000000e+00
-3.125000e+00 -1.584375e+01 0.000000e+00
-2.968750e+00 -1.600000e+01 0.000000e+00
-2.968750e+00 -1.584375e+01 0.000000e+00
-2.812500e+00 -1.600000e+01 0.000000e+00
-2.812500e+00 -1.584375e+01 0.000000e+00
-2.656250e+00 -1.600000e+01 0.000000e+00
-2.656250e+00 -1.584375e+01 0.000000e+00
-2.500000e+00 -1.600000e+01 0.000000e+00
-2.500000e+00 -1.584375e+01 0.000000e+00
-2.343750e+00 -1.600000e+01 0.000000e+00
-2.343750e+00 -1.584375e+01 0.000000e+00
-2.187500e+00 -1.600000e+01 0.000000e+00
-2.187500e+00 -1.584375e+01 0.000000e+00
-2.031250e+00 -1.600000e+01 0.000000e+00
-2.031250e+00 -1.584375e+01 0.000000e+00
-1.875000e+00 -1.600000e+01 0.000000e+00
-1.875000e+00 -1.584375e+01 0.000000e+00
-1.718750e+00 -1.600000e+01 0.000000e+00
-1.718750e+00 -1.584375e+01 0.000000e+00
-1.562500e+00 -1.600000e+01 0.000000e+00
-1.562500e+00 -1.584375e+01 0.000000e+00
-1.406250e+00 -1.600000e+01 0.000000e+00
-1.406250e+00 -1.584375e+01 0.000000e+00
-1.250000e+00 -1.600000e+01 0.000000e+00
-1.250000e+00 -1.584375e+01 0.000000e+00
-1.093750e+00 -1.600000e+01 0.000000e+00
-1.093750e+00 -1.584375e+01 0.000000e+00
-9.375000e-01 -1.600000e+01 0.000000e+00
-9.375000e-01 -1.584375e+01 0.000000e+00
-7.812500e-01 -1.600000e+01 0.000000e+00
-7.812500e-01 -1.584375e+01 0.000000e+00
-6.250000e-01 -1.600000e+01 0.000000e+00
-6.250000e-01 -1.584375e+01 0.000000e+00
-4.687500e-01 -1.600000e+01 0.000000e+00
-4.687500e-01 -1.584375e+01 0.000000e+00
-3.125000e-01 -1.600000e+01 0.000000e+00
-3.125000e-01 -1.584375e+01 0.000000e+00
-1.562500e-01 -1.600000e+01 0.000000e+00
-1.562500e-01 -1.584375e+01 0.000000e+00
0.000000e+00 -1.600000e+01 0.000000e+00
0.000000e+00 -1.584375e+01 0.000000e+00
1.562500e-01 -1.600000e+01 0.000000e+00
1.562500e-01 -1.584375e+01 0.000000e+00
3.125000e-01 -1.600000e+01 0.000000e+00
3.125000e-01 -1.584375e+01 0.000000e+00
4.687500e-01 -1.600000e+01 0.000000e+00
4.687500e-01 -1.584375e+01 0.000000e+00
6.250000e-01 -1.600000e+01 0.000000e+00
6.250000e-01 -1.584375e+01 0.000000e+00
7.812500e-01 -1.600000e+01 0.000000e+00
7.812500e-01 -1.584375e+01 0.000000e+00
9.375000e-01 -1.600000e+01 0.000000e+00
9.375000e-01 -1.584375e+01 0.000000e+00
1.093750e+00 -1.600000e+01 0.000000e+00
1.093750e+00 -1.584375e+01 0.000000e+00
1.250000e+00 -1.600000e+01 0.000000e+00
1.250000e+00 -1.584375e+01 0.000000e+00
1.406250e+00 -1.600000e+01 0.000000e+00
1.406250e+00 -1.584375e+01 0.000000e+00
1.562500e+00 -1.600000e+01 0.000000e+00
1.562500e+00 -1.584375e+01 0.000000e+00
1.718750e+00 -1.600000e+01 0.000000e+00
1.718750e+00 -1.584375e+01 0.000000e+00
1.875000e+00 -1.600000e+01 0.000000e+00
1.875000e+00 -1.584375e+01 0.000000e+00
2.031250e+00 -1.600000e+01 0.000000e+00
2.031250e+00 -1.584375e+01 0.000000e+00
2.187500e+00 -1.600000e+01 0.000000e+00
2.187500e+00 -1.584375e+01 0.000000e+00
2.343750e+00 -1.600000e+01 0.000000e+00
2.343750e+00 -1.584375e+01 0.000000e+00
2.500000e+00 -1.600000e+01 0.000000e+00
2.500000e+00 -1.584375e+01 0.000000e+00
2.656250e+00 -1.600000e+01 0.000000e+00
2.656250e+00 -1.584375e+01 0.000000e+00
2.812500e+00 -1.600000e+01 0.000000e+00
2.812500e+00 -1.584375e+01 0.000000e+00
2.968750e+00 -1.600000e+01 0.000000e+00
2.968750e+00 -1.584375e+01 0.000000e+00
3.125000e+00 -1.600000e+01 0.000000e+00
3.125000e+00 -1.584375e+01 0.000000e+00
3.281250e+00 -1.600000e+01 0.000000e+00
3.281250e+00 -1.584375e+01 0.000000e+00
3.437500e+00 -1.600000e+01 0.000000e+00
3.437500e+00 -1.584375e+01 0.000000e+00
3.593750e+00 -1.600000e+01 0.000000e+00
3.593750e+00 -1.584375e+01 0.000000e+00
3.750000e+00 -1.600000e+01 0.000000e+00
3.750000e+00 -1.584375e+01 0.000000e+00
3.906250e+00 -1.600000e+01 0.000000e+00
3.906250e+00 -1.584375e+01 0.000000e+00
4.062500e+00 -1.600000e+01 0.000000e+00
4.062500e+00 -1.584375e+01 0.000000e+00
4.218750e+00 -1.600000e+01 0.000000e+00
4.218750e+00 -1.584375e+01 0.000000e+00
4.375000e+00 -1.600000e+01 0.000000e+00
4.375000e+00 -1.584375e+01 0.000000e+00
4.531250e+00 -1.600000e+01 0.000000e+00
4.531250e+00 -1.584375e+01 0.000000e+00
4.687500e+00 -1.600000e+01 0.000000e+00
4.687500e+00 -1.584375e+01 0.000000e+00
4.843750e+00 -1.600000e+01 0.000000e+00
4.843750e+00 -1.584375e+01 0.000000e+00
5.000000e+00 -1.600000e+01 0.000000e+00
5.000000e+00 -1.584375e+01 0.000000e+00
5.156250e+00 -1.600000e+01 0.000000e+00
5.156250e+00 -1.584375e+01 0.000000e+00
5.312500e+00 -1.600000e+01 0.000000e+00
5.312500e+00 -1.584375e+01 0.000000e+00
5.468750e+00 -1.600000e+01 0.000000e+00
5.468750e+00 -1.584375e+01 0.000000e+00
5.625000e+00 -1.600000e+01 0.000000e+00
5.625000e+00 -1.584375e+01 0.000000e+00
5.781250e+00 -1.600000e+01 0.000000e+00
5.781250e+00 -1.584375e+01 0.000000e+00
5.937500e+00 -1.600000e+01 0.000000e+00
5.937500e+00 -1.584375e+01 0.000000e+00
6.093750e+00 -1.600000e+01 0.000000e+00
6.093750e+00 -1.584375e+01 0.000000e+00
6.250000e+00 -1.600000e+01 0.000000e+00
6.250000e+00 -1.584375e+01 0.000000e+00
6.406250e+00 -1.600000e+01 0.000000e+00
6.406250e+00 -1.584375e+01 0.000000e+00
6.562500e+00 -1.600000e+01 0.000000e+00
6.562500e+00 -1.584375e+01 0.000000e+00
6.718750e+00 -1.600000e+01 0.000000e+00
6.718750e+00 -1.584375e+01 0.000000e+00
6.875000e+00 -1.600000e+01 0.000000e+00
6.875000e+00 -1.584375e+01 0.000000e+00
7.031250e+00 -1.600000e+01 0.000000e+00
7.031250e+00 -1.584375e+01 0.000000e+00
7.187500e+00 -1.600000e+01 0.000000e+00
7.187500e+00 -1.584375e+01 0.000000e+00
7.343750e+00 -1.600000e+01 0.000000e+00
7.343750e+00 -1.584375e+01 0.000000e+00
7.500000e+00 -1.600000e+01 0.000000e+00
7.500000e+00 -1.584375e+01 0.000000e+00
7.656250e+00 -1.600000e+01 0.000000e+00
7.656250e+00 -1.584375e+01 0.000000e+00
7.812500e+00 -1.600000e+01 0.000000e+00
7.812500e+00 -1.584375e+01 0.000000e+00
7.968750e+00 -1.600000e+01 0.000000e+00
7.968750e+00 -1.584375e+01 0.000000e+00
8.125000e+00 -1.600000e+01 0.000000e+00
8.125000e+00 -1.584375e+01 0.000000e+00
8.281250e+00 -1.600000e+01 0.000000e+00
8.281250e+00 -1.584375e+01 0.000000e+00
8.437500e+00 -1.600000e+01 0.000000e+00
8.437500e+00 -1.584375e+01 0.000000e+00
8.593750e+00 -1.600000e+01 0.000000e+00
8.593750e+00 -1.584375e+01 0.000000e+00
[...]
         <CellData Scalars="count">
            <DataArray type="Float64" Name="solution" format="ascii">
1.059364e-03 3.177591e-03 5.294313e-03 7.408524e-03 9.519216e-03 1.162538e-02 1.372601e-02 1.582007e-02 1.790656e-02 1.998444e-02 2.205268e-02 2.411023e-02 2.615606e-02 2.818910e-02 3.020830e-02 3.221259e-02 3.420088e-02 3.617209e-02 3.812513e-02 4.005890e-02 4.197227e-02 4.386415e-02 4.573339e-02 4.757887e-02 4.939946e-02 5.119401e-02 5.296137e-02 5.470039e-02 5.640992e-02 5.808881e-02 5.973590e-02 6.135005e-02 6.293010e-02 6.447490e-02 6.598333e-02 6.745424e-02 6.888653e-02 7.027907e-02 7.163079e-02 7.294059e-02 7.420741e-02 7.543022e-02 7.660800e-02 7.773974e-02 7.882449e-02 7.986130e-02 8.084926e-02 8.178749e-02 8.267516e-02 8.351146e-02 8.429562e-02 8.502693e-02 8.570470e-02 8.632829e-02 8.689711e-02 8.741064e-02 8.786836e-02 8.826985e-02 8.861471e-02 8.890261e-02 8.913327e-02 8.930646e-02 8.942201e-02 8.947982e-02 8.947982e-02 8.942201e-02 8.930646e-02 8.913327e-02 8.890261e-02 8.861471e-02 8.826985e-02 8.786836e-02 8.741064e-02 8.689711e-02 8.632829e-02 8.570470e-02 8.502693e-02 8.429562e-02 8.351146e-02 8.267516e-02 8.178749e-02 8.084926e-02 7.986130e-02 7.882449e-02 7.773974e-02 7.660800e-02 7.543022e-02 7.420741e-02 7.294059e-02 7.163079e-02 7.027907e-02 6.888653e-02 6.745424e-02 6.598333e-02 6.447490e-02 6.293010e-02 6.135005e-02 5.973590e-02 5.808881e-02 5.640992e-02 5.470039e-02 5.296137e-02 5.119401e-02 4.939946e-02 4.757887e-02 4.573339e-02 4.386415e-02 4.197227e-02 4.005890e-02 3.812513e-02 3.617209e-02 3.420088e-02 3.221259e-02 3.020830e-02 2.818910e-02 2.615606e-02 2.411023e-02 2.205268e-02 1.998444e-02 1.790656e-02 1.582007e-02 1.372601e-02 1.162538e-02 9.519216e-03 7.408524e-03 5.294313e-03 3.177591e-03 1.059364e-03 3.178595e-03 9.534280e-03 1.588545e-02 2.222909e-02 2.856218e-02 3.488169e-02 4.118458e-02 4.746780e-02 5.372828e-02 5.996295e-02 6.616871e-02 7.234242e-02 7.848096e-02 8.458116e-02 9.063983e-02 9.665376e-02 1.026197e-01 1.085345e-01 1.143947e-01 1.201971e-01 1.259383e-01 1.316151e-01 1.372239e-01 1.427615e-01 1.482244e-01 1.536092e-01 1.589124e-01 1.641307e-01 1.692604e-01 1.742982e-01 1.792407e-01 1.840842e-01 1.888255e-01 1.934611e-01 1.979875e-01 2.024014e-01 2.066993e-01 2.108781e-01 2.149343e-01 2.188647e-01 2.226663e-01 2.263357e-01 2.298700e-01 2.332662e-01 2.365214e-01 2.396327e-01 2.425975e-01 2.454130e-01 2.480769e-01 2.505865e-01 2.529397e-01 2.551343e-01 2.571683e-01 2.590396e-01 2.607467e-01 2.622877e-01 2.636613e-01 2.648662e-01 2.659011e-01 2.667651e-01 2.674573e-01 2.679770e-01 2.683238e-01 2.684973e-01 2.684973e-01 2.683238e-01 2.679770e-01 2.674573e-01 2.667651e-01 2.659011e-01 2.648662e-01 2.636613e-01 2.622877e-01 2.607467e-01 2.590396e-01 2.571683e-01 2.551343e-01 2.529397e-01 2.505865e-01 2.480769e-01 2.454130e-01 2.425975e-01 2.396327e-01 2.365214e-01 2.332662e-01 2.298700e-01 2.263357e-01 2.226663e-01 2.188647e-01 2.149343e-01 2.108781e-01 2.066993e-01 2.024014e-01 1.979875e-01 1.934611e-01 1.888255e-01 1.840842e-01 1.792407e-01 1.742982e-01 1.692604e-01 1.641307e-01 1.589124e-01 1.536092e-01 1.482244e-01 1.427615e-01 1.372239e-01 1.316151e-01 1.259383e-01 1.201971e-01 1.143947e-01 1.085345e-01 1.026197e-01 9.665376e-02 9.063983e-02 8.458116e-02 7.848096e-02 7.234242e-02 6.616871e-02 5.996295e-02 5.372828e-02 4.746780e-02 4.118458e-02 3.488169e-02 2.856218e-02 2.222909e-02 1.588545e-02 9.534280e-03 3.178595e-03 5.299330e-03 1.589548e-02 2.648411e-02 3.706020e-02 4.761871e-02 5.815460e-02 6.866281e-02 7.913825e-02 8.957582e-02 9.997038e-02 1.103168e-01 1.206098e-01 1.308442e-01 1.410147e-01 1.511161e-01 1.611429e-01 1.710898e-01 1.809513e-01 1.907220e-01 2.003964e-01 2.099689e-01 2.194339e-01 2.287857e-01 2.380188e-01 2.471275e-01 2.561060e-01 2.649485e-01 2.736494e-01 2.822028e-01 2.906030e-01 2.988443e-01 3.069207e-01 3.148267e-01 3.225564e-01 3.301042e-01 3.374644e-01 3.446314e-01 3.515996e-01 3.583635e-01 3.649178e-01 3.712572e-01 3.773763e-01 3.832702e-01 3.889338e-01 3.943622e-01 3.995508e-01 4.044950e-01 4.091903e-01 4.136327e-01 4.178180e-01 4.217425e-01 4.254024e-01 4.287944e-01 4.319153e-01 4.347622e-01 4.373323e-01 4.396231e-01 4.416325e-01 4.433584e-01 4.447993e-01 4.459538e-01 4.468206e-01 4.473989e-01 4.476882e-01 4.476882e-01 4.473989e-01 4.468206e-01 4.459538e-01 4.447993e-01 4.433584e-01 4.416325e-01 4.396231e-01 4.373323e-01 4.347622e-01 4.319153e-01 4.287944e-01 4.254024e-01 4.217425e-01 4.178180e-01 4.136327e-01 4.091903e-01 4.044950e-01 3.995508e-01 3.943622e-01 3.889338e-01 3.832702e-01 3.773763e-01 3.712572e-01 3.649178e-01 3.583635e-01 3.515996e-01 3.446314e-01 3.374644e-01 3.301042e-01 3.225564e-01 3.148267e-01 3.069207e-01 2.988443e-01 2.906030e-01 2.822028e-01 2.736494e-01 2.649485e-01 2.561060e-01 2.471275e-01 2.380188e-01 2.287857e-01 2.194339e-01 2.099689e-01 2.003964e-01 1.907220e-01 1.809513e-01 1.710898e-01 1.611429e-01 1.511161e-01 1.410147e-01 1.308442e-01 1.206098e-01 1.103168e-01 9.997038e-02 8.957582e-02 7.913825e-02 6.866281e-02 5.815460e-02 4.761871e-02 3.706020e-02 2.648411e-02 1.589548e-02 5.299330e-03 7.422572e-03 2.226421e-02 3.709532e-02 5.190889e-02 6.669787e-02 8.145520e-02 9.617381e-02 1.108466e-01 1.254664e-01 1.400260e-01 1.545182e-01 1.689357e-01 1.832713e-01 1.975175e-01 2.116669e-01 2.257120e-01 2.396452e-01 2.534590e-01 2.671457e-01 2.806976e-01 2.941069e-01 3.073658e-01 3.204663e-01 3.334006e-01 3.461607e-01 3.587386e-01 3.711263e-01 3.833156e-01 3.952984e-01 4.070668e-01 4.186126e-01 4.299277e-01 4.410041e-01 4.518337e-01 4.624085e-01 4.727206e-01 4.827622e-01 4.925253e-01 5.020025e-01 5.111859e-01 5.200683e-01 5.286423e-01 5.369007e-01 5.448364e-01 5.524429e-01 5.597133e-01 5.666413e-01 5.732207e-01 5.794457e-01 5.853105e-01 5.908098e-01 5.959385e-01 6.006918e-01 6.050652e-01 6.090545e-01 6.126561e-01 6.158663e-01 6.186822e-01 6.211009e-01 6.231201e-01 6.247379e-01 6.259526e-01 6.267631e-01 6.271686e-01 6.271686e-01 6.267631e-01 6.259526e-01 6.247379e-01 6.231201e-01 6.211009e-01 6.186822e-01 6.158663e-01 6.126561e-01 6.090545e-01 6.050652e-01 6.006918e-01 5.959385e-01 5.908098e-01 5.853105e-01 5.794457e-01 5.732207e-01 5.666413e-01 5.597133e-01 5.524429e-01 5.448364e-01 5.369007e-01 5.286423e-01 5.200683e-01 5.111859e-01 5.020025e-01 4.925253e-01 4.827622e-01 4.727206e-01 4.624085e-01 4.518337e-01 4.410041e-01 4.299277e-01 4.186126e-01 4.070668e-01 3.952984e-01 3.833156e-01 3.711263e-01 3.587386e-01 3.461607e-01 3.334006e-01 3.204663e-01 3.073658e-01 2.941069e-01 2.806976e-01 2.671457e-01 2.534590e-01 2.396452e-01 2.257120e-01 2.116669e-01 1.975175e-01 1.832713e-01 1.689357e-01 1.545182e-01 1.400260e-01 1.254664e-01 1.108466e-01 9.617381e-02 8.145520e-02 6.669787e-02 5.190889e-02 3.709532e-02 2.226421e-02 7.422572e-03 9.549320e-03 2.864346e-02 4.772408e-02 6.678216e-02 8.580866e-02 1.047945e-01 1.237306e-01 1.426079e-01 1.614171e-01 1.801490e-01 1.987943e-01 2.173437e-01 2.357878e-01 2.541170e-01 2.723219e-01 2.903928e-01 3.083201e-01 3.260938e-01 3.437042e-01 3.611414e-01 3.783954e-01 3.954560e-01 4.123131e-01 4.289566e-01 4.453762e-01 4.615615e-01 4.775023e-01 4.931881e-01 5.086086e-01 5.237532e-01 5.386117e-01 5.531735e-01 5.674283e-01 5.813658e-01 5.949756e-01 6.082475e-01 6.211714e-01 6.337372e-01 6.459350e-01 6.577551e-01 6.691879e-01 6.802238e-01 6.908537e-01 7.010686e-01 7.108596e-01 7.202182e-01 7.291362e-01 7.376056e-01 7.456188e-01 7.531685e-01 7.602477e-01 7.668500e-01 7.729690e-01 7.785991e-01 7.837348e-01 7.883713e-01 7.925040e-01 7.961291e-01 7.992429e-01 8.018425e-01 8.039252e-01 8.054890e-01 8.065324e-01 8.070544e-01 8.070544e-01 8.065324e-01 8.054890e-01 8.039252e-01 8.018425e-01 7.992429e-01 7.961291e-01 7.925040e-01 7.883713e-01 7.837348e-01 7.785991e-01 7.729690e-01 7.668500e-01 7.602477e-01 7.531685e-01 7.456188e-01 7.376056e-01 7.291362e-01 7.202182e-01 7.108596e-01 7.010686e-01 6.908537e-01 6.802238e-01 6.691879e-01 6.577551e-01 6.459350e-01 6.337372e-01 6.211714e-01 6.082475e-01 5.949756e-01 5.813658e-01 5.674283e-01 5.531735e-01 5.386117e-01 5.237532e-01 5.086086e-01 4.931881e-01 4.775023e-01 4.615615e-01 4.453762e-01 4.289566e-01 4.123131e-01 3.954560e-01 3.783954e-01 3.611414e-01 3.437042e-01 3.260938e-01 3.083201e-01 2.903928e-01 2.723219e-01 2.541170e-01 2.357878e-01 2.173437e-01 1.987943e-01 1.801490e-01 1.614171e-01 1.426079e-01 1.237306e-01 1.047945e-01 8.580866e-02 6.678216e-02 4.772408e-02 2.864346e-02 9.549320e-03 1.168057e-02 3.503622e-02 5.837536e-02 8.168700e-02 1.049601e-01 1.281836e-01 1.513463e-01 1.744372e-01 1.974451e-01 2.203585e-01 2.431663e-01 2.658570e-01 2.884190e-01 3.108409e-01 3.331110e-01 3.552174e-01 3.771484e-01 3.988919e-01 4.204360e-01 4.417685e-01 4.628771e-01 4.837496e-01 5.043736e-01 5.247365e-01 5.448259e-01 5.646290e-01 5.841333e-01 6.033261e-01 6.221945e-01 6.407258e-01 6.589074e-01 6.767263e-01 6.941699e-01 7.112255e-01 7.278805e-01 7.441223e-01 7.599386e-01 7.753170e-01 7.902454e-01 8.047118e-01 8.187043e-01 8.322115e-01 8.452219e-01 8.577246e-01 8.697087e-01 8.811637e-01 8.920797e-01 9.024467e-01 9.122555e-01 9.214970e-01 9.301628e-01 9.382447e-01 9.457353e-01 9.526274e-01 9.589144e-01 9.645902e-01 9.696495e-01 9.740873e-01 9.778993e-01 9.810817e-01 9.836314e-01 9.855459e-01 9.868233e-01 9.874623e-01 9.874623e-01 9.868233e-01 9.855459e-01 9.836314e-01 9.810817e-01 9.778993e-01 9.740873e-01 9.696495e-01 9.645902e-01 9.589144e-01 9.526274e-01 9.457353e-01 9.382447e-01 9.301628e-01 9.214970e-01 9.122555e-01 9.024467e-01 8.920797e-01 8.811637e-01 8.697087e-01 8.577246e-01 8.452219e-01 8.322115e-01 8.187043e-01 8.047118e-01 7.902454e-01 7.753170e-01 7.599386e-01 7.441223e-01 7.278805e-01 7.112255e-01 6.941699e-01 6.767263e-01 6.589074e-01 6.407258e-01 6.221945e-01 6.033261e-01 5.841333e-01 5.646290e-01 5.448259e-01 5.247365e-01 5.043736e-01 4.837496e-01 4.628771e-01 4.417685e-01 4.204360e-01 3.988919e-01 3.771484e-01 3.552174e-01 3.331110e-01 3.108409e-01 2.884190e-01 2.658570e-01 2.431663e-01 2.203585e-01 1.974451e-01 1.744372e-01 1.513463e-01 1.281836e-01 1.049601e-01 8.168700e-02 5.837536e-02 3.503622e-02 1.168057e-02 1.381732e-02 4.144547e-02 6.905416e-02 9.663039e-02 1.241611e-01 1.516333e-01 1.790339e-01 2.063497e-01 2.335674e-01 2.606737e-01 2.876554e-01 3.144988e-01 3.411905e-01 3.677167e-01 3.940636e-01 4.202174e-01 4.461641e-01 4.718894e-01 4.973793e-01 5.226193e-01 5.475950e-01 5.722918e-01 5.966951e-01 6.207900e-01 6.445617e-01 6.679954e-01 6.910759e-01 7.137883e-01 7.361175e-01 7.580483e-01 7.795656e-01 8.006544e-01 8.212995e-01 8.414858e-01 8.611986e-01 8.804228e-01 8.991438e-01 9.173469e-01 9.350178e-01 9.521422e-01 9.687061e-01 9.846959e-01 1.000098e+00 1.014899e+00 1.029087e+00 1.042649e+00 1.055572e+00 1.067846e+00 1.079459e+00 1.090401e+00 1.100662e+00 1.110231e+00 1.119100e+00 1.127261e+00 1.134705e+00 1.141426e+00 1.147417e+00 1.152672e+00 1.157185e+00 1.160954e+00 1.163973e+00 1.166240e+00 1.167753e+00 1.168509e+00 1.168509e+00 1.167753e+00 1.166240e+00 1.163973e+00 1.160954e+00 1.157185e+00 1.152672e+00 1.147417e+00 1.141426e+00 1.134705e+00 1.127261e+00 1.119100e+00 1.110231e+00 1.100662e+00 1.090401e+00 1.079459e+00 1.067846e+00 1.055572e+00 1.042649e+00 1.029087e+00 1.014899e+00 1.000098e+00 9.846959e-01 9.687061e-01 9.521422e-01 9.350178e-01 9.173469e-01 8.991438e-01 8.804228e-01 8.611986e-01 8.414858e-01 8.212995e-01 8.006544e-01 7.795656e-01 7.580483e-01 7.361175e-01 7.137883e-01 6.910759e-01 6.679954e-01 6.445617e-01 6.207900e-01 5.966951e-01 5.722918e-01 5.475950e-01 5.226193e-01 4.973793e-01 4.718894e-01 4.461641e-01 4.202174e-01 3.940636e-01 3.677167e-01 3.411905e-01 3.144988e-01 2.876554e-01 2.606737e-01 2.335674e-01 2.063497e-01 1.790339e-01 1.516333e-01 1.241611e-01 9.663039e-02 6.905416e-02 4.144547e-02 1.381732e-02 1.596055e-02 4.787419e-02 7.976541e-02 1.116192e-01 1.434207e-01 1.751547e-01 2.068063e-01 2.383601e-01 2.698010e-01 3.011137e-01 3.322827e-01 3.632924e-01 3.941274e-01 4.247716e-01 4.552094e-01 4.854245e-01 5.154010e-01 5.451225e-01 5.745725e-01 6.037345e-01 6.325918e-01 6.611276e-01 6.893249e-01 7.171666e-01 7.446357e-01 7.717148e-01 7.983867e-01 8.246338e-01 8.504388e-01 8.757842e-01 9.006525e-01 9.250262e-01 9.488877e-01 9.722199e-01 9.950052e-01 1.017227e+00 1.038867e+00 1.059909e+00 1.080337e+00 1.100133e+00 1.119282e+00 1.137768e+00 1.155575e+00 1.172687e+00 1.189091e+00 1.204771e+00 1.219714e+00 1.233906e+00 1.247335e+00 1.259987e+00 1.271852e+00 1.282917e+00 1.293174e+00 1.302611e+00 1.311220e+00 1.318992e+00 1.325920e+00 1.331997e+00 1.337217e+00 1.341575e+00 1.345067e+00 1.347689e+00 1.349438e+00 1.350313e+00 1.350313e+00 1.349438e+00 1.347689e+00 1.345067e+00 1.341575e+00 1.337217e+00 1.331997e+00 1.325920e+00 1.318992e+00 1.311220e+00 1.302611e+00 1.293174e+00 1.282917e+00 1.271852e+00 1.259987e+00 1.247335e+00 1.233906e+00 1.219714e+00 1.204771e+00 1.189091e+00 1.172687e+00 1.155575e+00 1.137768e+00 1.119282e+00 1.100133e+00 1.080337e+00 1.059909e+00 1.038867e+00 1.017227e+00 9.950052e-01 9.722199e-01 9.488877e-01 9.250262e-01 9.006525e-01 8.757842e-01 8.504388e-01 8.246338e-01 7.983867e-01 7.717148e-01 7.446357e-01 7.171666e-01 6.893249e-01 6.611276e-01 6.325918e-01 6.037345e-01 5.745725e-01 5.451225e-01 5.154010e-01 4.854245e-01 4.552094e-01 4.247716e-01 3.941274e-01 3.632924e-01 3.322827e-01 3.011137e-01 2.698010e-01 2.383601e-01 2.068063e-01 1.751547e-01 1.434207e-01 1.116192e-01 7.976541e-02 4.787419e-02 1.596055e-02 1.811126e-02 5.432532e-02 9.051403e-02 1.266605e-01 1.627477e-01 1.987586e-01 2.346763e-01 2.704835e-01 3.061629e-01 3.416973e-01 3.770692e-01 4.122609e-01 4.472548e-01 4.820331e-01 5.165777e-01 5.508704e-01 5.848929e-01 6.186269e-01 6.520536e-01 6.851543e-01 7.179101e-01 7.503017e-01 7.823102e-01 8.139159e-01 8.450996e-01 8.758415e-01 9.061221e-01 9.359214e-01 9.652198e-01 9.939973e-01 1.022234e+00 1.049910e+00 1.077006e+00 1.103501e+00 1.129376e+00 1.154611e+00 1.179188e+00 1.203086e+00 1.226287e+00 1.248772e+00 1.270522e+00 1.291519e+00 1.311746e+00 1.331185e+00 1.349819e+00 1.367632e+00 1.384607e+00 1.400731e+00 1.415987e+00 1.430361e+00 1.443841e+00 1.456413e+00 1.468067e+00 1.478789e+00 1.488571e+00 1.497402e+00 1.505274e+00 1.512179e+00 1.518111e+00 1.523063e+00 1.527031e+00 1.530010e+00 1.531998e+00 1.532992e+00 1.532992e+00 1.531998e+00 1.530010e+00 1.527031e+00 1.523063e+00 1.518111e+00 1.512179e+00 1.505274e+00 1.497402e+00 1.488571e+00 1.478789e+00 1.468067e+00 1.456413e+00 1.443841e+00 1.430361e+00 1.415987e+00 1.400731e+00 1.384607e+00 1.367632e+00 1.349819e+00 1.331185e+00 1.311746e+00 1.291519e+00 1.270522e+00 1.248772e+00 1.226287e+00 1.203086e+00 1.179188e+00 1.154611e+00 1.129376e+00 1.103501e+00 1.077006e+00 1.049910e+00 1.022234e+00 9.939973e-01 9.652198e-01 9.359214e-01 9.061221e-01 8.758415e-01 8.450996e-01 8.139159e-01 7.823102e-01 7.503017e-01 7.179101e-01 6.851543e-01 6.520536e-01 6.186269e-01 5.848929e-01 5.508704e-01 5.165777e-01 4.820331e-01 4.472548e-01 4.122609e-01 3.770692e-01 3.416973e-01 3.061629e-01 2.704835e-01 2.346763e-01 1.987586e-01 1.627477e-01 1.266605e-01 9.051403e-02 5.432532e-02 1.811126e-02 2.027040e-02 6.080179e-02 1.013049e-01 1.417609e-01 1.821509e-01 2.224559e-01 2.626568e-01 3.027345e-01 3.426698e-01 3.824434e-01 4.220357e-01 4.614272e-01 5.005980e-01 5.395282e-01 5.781978e-01 6.165863e-01 6.546735e-01 6.924386e-01 7.298608e-01 7.669191e-01 8.035923e-01 8.398592e-01 8.756981e-01 9.110873e-01 9.460052e-01 9.804296e-01 1.014339e+00 1.047710e+00 1.080522e+00 1.112751e+00 1.144376e+00 1.175374e+00 1.205724e+00 1.235402e+00 1.264386e+00 1.292655e+00 1.320187e+00 1.346960e+00 1.372953e+00 1.398145e+00 1.422514e+00 1.446041e+00 1.468705e+00 1.490487e+00 1.511368e+00 1.531329e+00 1.550353e+00 1.568422e+00 1.585520e+00 1.601630e+00 1.616738e+00 1.630829e+00 1.643890e+00 1.655908e+00 1.666872e+00 1.676771e+00 1.685595e+00 1.693335e+00 1.699984e+00 1.705535e+00 1.709983e+00 1.713323e+00 1.715551e+00 1.716666e+00 1.716666e+00 1.715551e+00 1.713323e+00 1.709983e+00 1.705535e+00 1.699984e+00 1.693335e+00 1.685595e+00 1.676771e+00 1.666872e+00 1.655908e+00 1.643890e+00 1.630829e+00 1.616738e+00 1.601630e+00 1.585520e+00 1.568422e+00 1.550353e+00 1.531329e+00 1.511368e+00 1.490487e+00 1.468705e+00 1.446041e+00 1.422514e+00 1.398145e+00 1.372953e+00 1.346960e+00 1.320187e+00 1.292655e+00 1.264386e+00 1.235402e+00 1.205724e+00 1.175374e+00 1.144376e+00 1.112751e+00 1.080522e+00 1.047710e+00 1.014339e+00 9.804296e-01 9.460052e-01 9.110873e-01 8.756981e-01 8.398592e-01 8.035923e-01 7.669191e-01 7.298608e-01 6.924386e-01 6.546735e-01 6.165863e-01 5.781978e-01 5.395282e-01 5.005980e-01 4.614272e-01 4.220357e-01 3.824434e-01 3.426698e-01 3.027345e-01 2.626568e-01 2.224559e-01 1.821509e-01 1.417609e-01 1.013049e-01 6.080179e-02 2.027040e-02 2.243897e-02 6.730652e-02 1.121429e-01 1.569274e-01 2.016391e-01 2.462571e-01 2.907604e-01 3.351280e-01 3.793385e-01 4.233707e-01 4.672031e-01 5.108141e-01 5.541817e-01 5.972840e-01 6.400988e-01 6.826037e-01 7.247760e-01 7.665931e-01 8.080318e-01 8.490689e-01 8.896810e-01 9.298445e-01 9.695356e-01 1.008730e+00 1.047404e+00 1.085533e+00 1.123093e+00 1.160059e+00 1.196406e+00 1.232109e+00 1.267145e+00 1.301488e+00 1.335113e+00 1.367996e+00 1.400112e+00 1.431437e+00 1.461946e+00 1.491615e+00 1.520421e+00 1.548340e+00 1.575349e+00 1.601425e+00 1.626546e+00 1.650690e+00 1.673837e+00 1.695965e+00 1.717054e+00 1.737085e+00 1.756040e+00 1.773901e+00 1.790651e+00 1.806275e+00 1.820756e+00 1.834082e+00 1.846239e+00 1.857215e+00 1.867000e+00 1.875583e+00 1.882956e+00 1.889112e+00 1.894044e+00 1.897747e+00 1.900218e+00 1.901454e+00 1.901454e+00 1.900218e+00 1.897747e+00 1.894044e+00 1.889112e+00 1.882956e+00 1.875583e+00 1.867000e+00 1.857215e+00 1.846239e+00 1.834082e+00 1.820756e+00 1.806275e+00 1.790651e+00 1.773901e+00 1.756040e+00 1.737085e+00 1.717054e+00 1.695965e+00 1.673837e+00 1.650690e+00 1.626546e+00 1.601425e+00 1.575349e+00 1.548340e+00 1.520421e+00 1.491615e+00 1.461946e+00 1.431437e+00 1.400112e+00 1.367996e+00 1.335113e+00 1.301488e+00 1.267145e+00 1.232109e+00 1.196406e+00 1.160059e+00 1.123093e+00 1.085533e+00 1.047404e+00 1.008730e+00 9.695356e-01 9.298445e-01 8.896810e-01 8.490689e-01 8.080318e-01 7.665931e-01 7.247760e-01 6.826037e-01 6.400988e-01 5.972840e-01 5.541817e-01 5.108141e-01 4.672031e-01 4.233707e-01 3.793385e-01 3.351280e-01 2.907604e-01 2.462571e-01 2.016391e-01 1.569274e-01 1.121429e-01 6.730652e-02 2.243897e-02 2.461791e-02 7.384239e-02 1.230329e-01 1.721667e-01 2.212210e-01 2.701730e-01 3.189998e-01 3.676784e-01 4.161855e-01 4.644979e-01 5.125920e-01 5.604442e-01 6.080307e-01 6.553273e-01 7.023097e-01 7.489535e-01 7.952339e-01 8.411259e-01 8.866043e-01 9.316437e-01 9.762183e-01 1.020302e+00 1.063869e+00 1.106894e+00 1.149348e+00 1.191206e+00 1.232441e+00 1.273026e+00 1.312933e+00 1.352136e+00 1.390607e+00 1.428319e+00 1.465245e+00 1.501357e+00 1.536629e+00 1.571033e+00 1.604544e+00 1.637133e+00 1.668776e+00 1.699445e+00 1.729117e+00 1.757764e+00 1.785364e+00 1.811892e+00 1.837324e+00 1.861638e+00 1.884812e+00 1.906824e+00 1.927655e+00 1.947283e+00 1.965692e+00 1.982863e+00 1.998779e+00 2.013425e+00 2.026787e+00 2.038852e+00 2.049606e+00 2.059041e+00 2.067145e+00 2.073912e+00 2.079333e+00 2.083404e+00 2.086120e+00 2.087479e+00 2.087479e+00 2.086120e+00 2.083404e+00 2.079333e+00 2.073912e+00 2.067145e+00 2.059041e+00 2.049606e+00 2.038852e+00 2.026787e+00 2.013425e+00 1.998779e+00 1.982863e+00 1.965692e+00 1.947283e+00 1.927655e+00 1.906824e+00 1.884812e+00 1.861638e+00 1.837324e+00 1.811892e+00 1.785364e+00 1.757764e+00 1.729117e+00 1.699445e+00 1.668776e+00 1.637133e+00 1.604544e+00 1.571033e+00 1.536629e+00 1.501357e+00 1.465245e+00 1.428319e+00 1.390607e+00 1.352136e+00 1.312933e+00 1.273026e+00 1.232441e+00 1.191206e+00 1.149348e+00 1.106894e+00 1.063869e+00 1.020302e+00 9.762183e-01 9.316437e-01 8.866043e-01 8.411259e-01 7.952339e-01 7.489535e-01 7.023097e-01 6.553273e-01 6.080307e-01 5.604442e-01 5.125920e-01 4.644979e-01 4.161855e-01 3.676784e-01 3.189998e-01 2.70