<VTKFile type="UnstructuredGrid" version="0.1" byte_order="LittleEndian">
   <UnstructuredGrid>
      <Piece  NumberOfPoints="3445"  NumberOfCells="3320">
         <Points>
            <DataArray type="Float32" NumberOfComponents="3" format="ascii">
-2.187500e-01 -9.375000e-01 -1.251641e-03
-2.187500e-01 -9.687500e-01 -3.253694e-04
-1.875000e-01 -9.687500e-01 -4.375920e-04
-1.875000e-01 -9.375000e-01 -1.799828e-03
-1.562500e-01 -9.687500e-01 -6.153161e-04
-1.562500e-01 -9.375000e-01 -2.150515e-03
-1.250000e-01 -9.687500e-01 -7.797098e-04
-1.250000e-01 -9.375000e-01 -2.459334e-03
-9.375000e-02 -9.687500e-01 -9.193844e-04
-9.375000e-02 -9.375000e-01 -2.712958e-03
-6.250000e-02 -9.687500e-01 -1.025472e-03
-6.250000e-02 -9.375000e-01 -2.901222e-03
-3.125000e-02 -9.687500e-01 -1.091648e-03
-3.125000e-02 -9.375000e-01 -3.016992e-03
0.000000e+00 -9.687500e-01 -1.114127e-03
0.000000e+00 -9.375000e-01 -3.056048e-03
3.125000e-02 -9.687500e-01 -1.091648e-03
3.125000e-02 -9.375000e-01 -3.016992e-03
6.250000e-02 -9.687500e-01 -1.025472e-03
6.250000e-02 -9.375000e-01 -2.901222e-03
9.375000e-02 -9.687500e-01 -9.193844e-04
9.375000e-02 -9.375000e-01 -2.712958e-03
1.250000e-01 -9.687500e-01 -7.797098e-04
1.250000e-01 -9.375000e-01 -2.459334e-03
1.562500e-01 -9.687500e-01 -6.153161e-04
1.562500e-01 -9.375000e-01 -2.150515e-03
1.875000e-01 -9.687500e-01 -4.375920e-04
1.875000e-01 -9.375000e-01 -1.799828e-03
2.187500e-01 -9.687500e-01 -3.253694e-04
2.187500e-01 -9.375000e-01 -1.251641e-03
-3.125000e-01 -9.062500e-01 -1.450570e-03
-3.125000e-01 -9.375000e-01 -4.747152e-04
-2.812500e-01 -9.375000e-01 -7.023024e-04
-2.812500e-01 -9.062500e-01 -2.251329e-03
-2.500000e-01 -9.375000e-01 -1.044034e-03
-2.500000e-01 -9.062500e-01 -2.863152e-03
-2.187500e-01 -9.062500e-01 -3.459321e-03
-1.875000e-01 -9.062500e-01 -4.017185e-03
-1.562500e-01 -9.062500e-01 -4.517933e-03
-1.250000e-01 -9.062500e-01 -4.946440e-03
-9.375000e-02 -9.062500e-01 -5.290988e-03
-6.250000e-02 -9.062500e-01 -5.542931e-03
-3.125000e-02 -9.062500e-01 -5.696372e-03
0.000000e+00 -9.062500e-01 -5.747893e-03
3.125000e-02 -9.062500e-01 -5.696372e-03
6.250000e-02 -9.062500e-01 -5.542931e-03
9.375000e-02 -9.062500e-01 -5.290988e-03
1.250000e-01 -9.062500e-01 -4.946440e-03
1.562500e-01 -9.062500e-01 -4.517933e-03
1.875000e-01 -9.062500e-01 -4.017185e-03
2.187500e-01 -9.062500e-01 -3.459321e-03
2.500000e-01 -9.375000e-01 -1.044034e-03
2.500000e-01 -9.062500e-01 -2.863152e-03
2.812500e-01 -9.375000e-01 -7.023024e-04
2.812500e-01 -9.062500e-01 -2.251329e-03
3.125000e-01 -9.375000e-01 -4.747152e-04
3.125000e-01 -9.062500e-01 -1.450570e-03
-4.062500e-01 -8.750000e-01 -1.157461e-03
-4.062500e-01 -9.062500e-01 -3.413190e-04
-3.750000e-01 -9.062500e-01 -6.286730e-04
-3.750000e-01 -8.750000e-01 -2.052025e-03
-3.437500e-01 -9.062500e-01 -1.084734e-03
-3.437500e-01 -8.750000e-01 -2.863196e-03
-3.125000e-01 -8.750000e-01 -3.712186e-03
-2.812500e-01 -8.750000e-01 -4.564773e-03
-2.500000e-01 -8.750000e-01 -5.391244e-03
-2.187500e-01 -8.750000e-01 -6.166673e-03
-1.875000e-01 -8.750000e-01 -6.870861e-03
-1.562500e-01 -8.750000e-01 -7.487999e-03
-1.250000e-01 -8.750000e-01 -8.006160e-03
-9.375000e-02 -8.750000e-01 -8.416706e-03
-6.250000e-02 -8.750000e-01 -8.713681e-03
-3.125000e-02 -8.750000e-01 -8.893265e-03
0.000000e+00 -8.750000e-01 -8.953350e-03
3.125000e-02 -8.750000e-01 -8.893265e-03
6.250000e-02 -8.750000e-01 -8.713681e-03
9.375000e-02 -8.750000e-01 -8.416706e-03
1.250000e-01 -8.750000e-01 -8.006160e-03
1.562500e-01 -8.750000e-01 -7.487999e-03
1.875000e-01 -8.750000e-01 -6.870861e-03
2.187500e-01 -8.750000e-01 -6.166673e-03
2.500000e-01 -8.750000e-01 -5.391244e-03
2.812500e-01 -8.750000e-01 -4.564773e-03
3.125000e-01 -8.750000e-01 -3.712186e-03
3.437500e-01 -9.062500e-01 -1.084734e-03
3.437500e-01 -8.750000e-01 -2.863196e-03
3.750000e-01 -9.062500e-01 -6.286730e-04
3.750000e-01 -8.750000e-01 -2.052025e-03
4.062500e-01 -9.062500e-01 -3.413190e-04
4.062500e-01 -8.750000e-01 -1.157461e-03
-4.687500e-01 -8.437500e-01 -1.134466e-03
-4.687500e-01 -8.750000e-01 -3.588093e-04
-4.375000e-01 -8.750000e-01 -7.158603e-04
-4.375000e-01 -8.437500e-01 -2.150637e-03
-4.062500e-01 -8.437500e-01 -3.134991e-03
-3.750000e-01 -8.437500e-01 -4.196379e-03
-3.437500e-01 -8.437500e-01 -5.291085e-03
-3.125000e-01 -8.437500e-01 -6.380343e-03
-2.812500e-01 -8.437500e-01 -7.431187e-03
-2.500000e-01 -8.437500e-01 -8.416757e-03
-2.187500e-01 -8.437500e-01 -9.316152e-03
-1.875000e-01 -8.437500e-01 -1.011392e-02
-1.562500e-01 -8.437500e-01 -1.079930e-02
-1.250000e-01 -8.437500e-01 -1.136532e-02
-9.375000e-02 -8.437500e-01 -1.180787e-02
-6.250000e-02 -8.437500e-01 -1.212479e-02
-3.125000e-02 -8.437500e-01 -1.231516e-02
0.000000e+00 -8.437500e-01 -1.237863e-02
3.125000e-02 -8.437500e-01 -1.231516e-02
6.250000e-02 -8.437500e-01 -1.212479e-02
9.375000e-02 -8.437500e-01 -1.180787e-02
1.250000e-01 -8.437500e-01 -1.136532e-02
1.562500e-01 -8.437500e-01 -1.079930e-02
1.875000e-01 -8.437500e-01 -1.011392e-02
2.187500e-01 -8.437500e-01 -9.316152e-03
2.500000e-01 -8.437500e-01 -8.416757e-03
2.812500e-01 -8.437500e-01 -7.431187e-03
3.125000e-01 -8.437500e-01 -6.380343e-03
3.437500e-01 -8.437500e-01 -5.291085e-03
3.750000e-01 -8.437500e-01 -4.196379e-03
4.062500e-01 -8.437500e-01 -3.134991e-03
4.375000e-01 -8.750000e-01 -7.158603e-04
4.375000e-01 -8.437500e-01 -2.150637e-03
4.687500e-01 -8.750000e-01 -3.588093e-04
4.687500e-01 -8.437500e-01 -1.134466e-03
-5.312500e-01 -8.125000e-01 -8.956759e-04
-5.312500e-01 -8.437500e-01 -2.476470e-04
-5.000000e-01 -8.437500e-01 -6.242548e-04
-5.000000e-01 -8.125000e-01 -1.924062e-03
-4.687500e-01 -8.125000e-01 -3.017156e-03
-4.375000e-01 -8.125000e-01 -4.241726e-03
-4.062500e-01 -8.125000e-01 -5.543066e-03
-3.750000e-01 -8.125000e-01 -6.870948e-03
-3.437500e-01 -8.125000e-01 -8.181427e-03
-3.125000e-01 -8.125000e-01 -9.437926e-03
-2.812500e-01 -8.125000e-01 -1.061163e-02
-2.500000e-01 -8.125000e-01 -1.168131e-02
-2.187500e-01 -8.125000e-01 -1.263263e-02
-1.875000e-01 -8.125000e-01 -1.345714e-02
-1.562500e-01 -8.125000e-01 -1.415108e-02
-1.250000e-01 -8.125000e-01 -1.471403e-02
-9.375000e-02 -8.125000e-01 -1.514770e-02
-6.250000e-02 -8.125000e-01 -1.545470e-02
-3.125000e-02 -8.125000e-01 -1.563766e-02
0.000000e+00 -8.125000e-01 -1.569842e-02
3.125000e-02 -8.125000e-01 -1.563766e-02
6.250000e-02 -8.125000e-01 -1.545470e-02
9.375000e-02 -8.125000e-01 -1.514770e-02
1.250000e-01 -8.125000e-01 -1.471403e-02
1.562500e-01 -8.125000e-01 -1.415108e-02
1.875000e-01 -8.125000e-01 -1.345714e-02
2.187500e-01 -8.125000e-01 -1.263263e-02
2.500000e-01 -8.125000e-01 -1.168131e-02
2.812500e-01 -8.125000e-01 -1.061163e-02
3.125000e-01 -8.125000e-01 -9.437926e-03
3.437500e-01 -8.125000e-01 -8.181427e-03
3.750000e-01 -8.125000e-01 -6.870948e-03
4.062500e-01 -8.125000e-01 -5.543066e-03
4.375000e-01 -8.125000e-01 -4.241726e-03
4.687500e-01 -8.125000e-01 -3.017156e-03
5.000000e-01 -8.437500e-01 -6.242548e-04
5.000000e-01 -8.125000e-01 -1.924062e-03
5.312500e-01 -8.437500e-01 -2.476470e-04
5.312500e-01 -8.125000e-01 -8.956759e-04
-5.625000e-01 -7.812500e-01 -1.251759e-03
-5.625000e-01 -8.125000e-01 -4.940370e-04
-5.312500e-01 -7.812500e-01 -2.530782e-03
-5.000000e-01 -7.812500e-01 -3.841698e-03
-4.687500e-01 -7.812500e-01 -5.291149e-03
-4.375000e-01 -7.812500e-01 -6.815813e-03
-4.062500e-01 -7.812500e-01 -8.357800e-03
-3.750000e-01 -7.812500e-01 -9.866962e-03
-3.437500e-01 -7.812500e-01 -1.130232e-02
-3.125000e-01 -7.812500e-01 -1.263266e-02
-2.812500e-01 -7.812500e-01 -1.383632e-02
-2.500000e-01 -7.812500e-01 -1.490043e-02
-2.187500e-01 -7.812500e-01 -1.581962e-02
-1.875000e-01 -7.812500e-01 -1.659450e-02
-1.562500e-01 -7.812500e-01 -1.722996e-02
-1.250000e-01 -7.812500e-01 -1.773346e-02
-9.375000e-02 -7.812500e-01 -1.811349e-02
-6.250000e-02 -7.812500e-01 -1.837816e-02
-3.125000e-02 -7.812500e-01 -1.853408e-02
0.000000e+00 -7.812500e-01 -1.858555e-02
3.125000e-02 -7.812500e-01 -1.853408e-02
6.250000e-02 -7.812500e-01 -1.837816e-02
9.375000e-02 -7.812500e-01 -1.811349e-02
1.250000e-01 -7.812500e-01 -1.773346e-02
1.562500e-01 -7.812500e-01 -1.722996e-02
1.875000e-01 -7.812500e-01 -1.659450e-02
2.187500e-01 -7.812500e-01 -1.581962e-02
2.500000e-01 -7.812500e-01 -1.490043e-02
2.812500e-01 -7.812500e-01 -1.383632e-02
3.125000e-01 -7.812500e-01 -1.263266e-02
3.437500e-01 -7.812500e-01 -1.130232e-02
3.750000e-01 -7.812500e-01 -9.866962e-03
4.062500e-01 -7.812500e-01 -8.357800e-03
4.375000e-01 -7.812500e-01 -6.815813e-03
4.687500e-01 -7.812500e-01 -5.291149e-03
5.000000e-01 -7.812500e-01 -3.841698e-03
5.312500e-01 -7.812500e-01 -2.530782e-03
5.625000e-01 -8.125000e-01 -4.940370e-04
5.625000e-01 -7.812500e-01 -1.251759e-03
-5.937500e-01 -7.500000e-01 -1.555300e-03
-5.937500e-01 -7.812500e-01 -7.298115e-04
-5.625000e-01 -7.500000e-01 -3.056251e-03
-5.312500e-01 -7.500000e-01 -4.564894e-03
-5.000000e-01 -7.500000e-01 -6.219954e-03
-4.687500e-01 -7.500000e-01 -7.948181e-03
-4.375000e-01 -7.500000e-01 -9.682590e-03
-4.062500e-01 -7.500000e-01 -1.136543e-02
-3.750000e-01 -7.500000e-01 -1.295009e-02
-3.437500e-01 -7.500000e-01 -1.440199e-02
-3.125000e-01 -7.500000e-01 -1.569847e-02
-2.812500e-01 -7.500000e-01 -1.682795e-02
-2.500000e-01 -7.500000e-01 -1.778842e-02
-2.187500e-01 -7.500000e-01 -1.858557e-02
-1.875000e-01 -7.500000e-01 -1.923068e-02
-1.562500e-01 -7.500000e-01 -1.973849e-02
-1.250000e-01 -7.500000e-01 -2.012521e-02
-9.375000e-02 -7.500000e-01 -2.040663e-02
-6.250000e-02 -7.500000e-01 -2.059667e-02
-3.125000e-02 -7.500000e-01 -2.070613e-02
0.000000e+00 -7.500000e-01 -2.074184e-02
3.125000e-02 -7.500000e-01 -2.070613e-02
6.250000e-02 -7.500000e-01 -2.059667e-02
9.375000e-02 -7.500000e-01 -2.040663e-02
1.250000e-01 -7.500000e-01 -2.012521e-02
1.562500e-01 -7.500000e-01 -1.973849e-02
1.875000e-01 -7.500000e-01 -1.923068e-02
2.187500e-01 -7.500000e-01 -1.858557e-02
2.500000e-01 -7.500000e-01 -1.778842e-02
2.812500e-01 -7.500000e-01 -1.682795e-02
3.125000e-01 -7.500000e-01 -1.569847e-02
[...]
         <PointData Scalars="count">
            <DataArray type="Float64" Name="solution" format="ascii">
-1.251641e-03 -3.253694e-04 -4.375920e-04 -1.799828e-03 -6.153161e-04 -2.150515e-03 -7.797098e-04 -2.459334e-03 -9.193844e-04 -2.712958e-03 -1.025472e-03 -2.901222e-03 -1.091648e-03 -3.016992e-03 -1.114127e-03 -3.056048e-03 -1.091648e-03 -3.016992e-03 -1.025472e-03 -2.901222e-03 -9.193844e-04 -2.712958e-03 -7.797098e-04 -2.459334e-03 -6.153161e-04 -2.150515e-03 -4.375920e-04 -1.799828e-03 -3.253694e-04 -1.251641e-03 -1.450570e-03 -4.747152e-04 -7.023024e-04 -2.251329e-03 -1.044034e-03 -2.863152e-03 -3.459321e-03 -4.017185e-03 -4.517933e-03 -4.946440e-03 -5.290988e-03 -5.542931e-03 -5.696372e-03 -5.747893e-03 -5.696372e-03 -5.542931e-03 -5.290988e-03 -4.946440e-03 -4.517933e-03 -4.017185e-03 -3.459321e-03 -1.044034e-03 -2.863152e-03 -7.023024e-04 -2.251329e-03 -4.747152e-04 -1.450570e-03 -1.157461e-03 -3.413190e-04 -6.286730e-04 -2.052025e-03 -1.084734e-03 -2.863196e-03 -3.712186e-03 -4.564773e-03 -5.391244e-03 -6.166673e-03 -6.870861e-03 -7.487999e-03 -8.006160e-03 -8.416706e-03 -8.713681e-03 -8.893265e-03 -8.953350e-03 -8.893265e-03 -8.713681e-03 -8.416706e-03 -8.006160e-03 -7.487999e-03 -6.870861e-03 -6.166673e-03 -5.391244e-03 -4.564773e-03 -3.712186e-03 -1.084734e-03 -2.863196e-03 -6.286730e-04 -2.052025e-03 -3.413190e-04 -1.157461e-03 -1.134466e-03 -3.588093e-04 -7.158603e-04 -2.150637e-03 -3.134991e-03 -4.196379e-03 -5.291085e-03 -6.380343e-03 -7.431187e-03 -8.416757e-03 -9.316152e-03 -1.011392e-02 -1.079930e-02 -1.136532e-02 -1.180787e-02 -1.212479e-02 -1.231516e-02 -1.237863e-02 -1.231516e-02 -1.212479e-02 -1.180787e-02 -1.136532e-02 -1.079930e-02 -1.011392e-02 -9.316152e-03 -8.416757e-03 -7.431187e-03 -6.380343e-03 -5.291085e-03 -4.196379e-03 -3.134991e-03 -7.158603e-04 -2.150637e-03 -3.588093e-04 -1.134466e-03 -8.956759e-04 -2.476470e-04 -6.242548e-04 -1.924062e-03 -3.017156e-03 -4.241726e-03 -5.543066e-03 -6.870948e-03 -8.181427e-03 -9.437926e-03 -1.061163e-02 -1.168131e-02 -1.263263e-02 -1.345714e-02 -1.415108e-02 -1.471403e-02 -1.514770e-02 -1.545470e-02 -1.563766e-02 -1.569842e-02 -1.563766e-02 -1.545470e-02 -1.514770e-02 -1.471403e-02 -1.415108e-02 -1.345714e-02 -1.263263e-02 -1.168131e-02 -1.061163e-02 -9.437926e-03 -8.181427e-03 -6.870948e-03 -5.543066e-03 -4.241726e-03 -3.017156e-03 -6.242548e-04 -1.924062e-03 -2.476470e-04 -8.956759e-04 -1.251759e-03 -4.940370e-04 -2.530782e-03 -3.841698e-03 -5.291149e-03 -6.815813e-03 -8.357800e-03 -9.866962e-03 -1.130232e-02 -1.263266e-02 -1.383632e-02 -1.490043e-02 -1.581962e-02 -1.659450e-02 -1.722996e-02 -1.773346e-02 -1.811349e-02 -1.837816e-02 -1.853408e-02 -1.858555e-02 -1.853408e-02 -1.837816e-02 -1.811349e-02 -1.773346e-02 -1.722996e-02 -1.659450e-02 -1.581962e-02 -1.490043e-02 -1.383632e-02 -1.263266e-02 -1.130232e-02 -9.866962e-03 -8.357800e-03 -6.815813e-03 -5.291149e-03 -3.841698e-03 -2.530782e-03 -4.940370e-04 -1.251759e-03 -1.555300e-03 -7.298115e-04 -3.056251e-03 -4.564894e-03 -6.219954e-03 -7.948181e-03 -9.682590e-03 -1.136543e-02 -1.295009e-02 -1.440199e-02 -1.569847e-02 -1.682795e-02 -1.778842e-02 -1.858557e-02 -1.923068e-02 -1.973849e-02 -2.012521e-02 -2.040663e-02 -2.059667e-02 -2.070613e-02 -2.074184e-02 -2.070613e-02 -2.059667e-02 -2.040663e-02 -2.012521e-02 -1.973849e-02 -1.923068e-02 -1.858557e-02 -1.778842e-02 -1.682795e-02 -1.569847e-02 -1.440199e-02 -1.295009e-02 -1.136543e-02 -9.682590e-03 -7.948181e-03 -6.219954e-03 -4.564894e-03 -3.056251e-03 -7.298115e-04 -1.555300e-03 -7.958858e-04 -2.630620e-04 -7.793686e-04 -2.019751e-03 -3.459488e-03 -5.142335e-03 -6.981832e-03 -8.893436e-03 -1.079943e-02 -1.263271e-02 -1.433939e-02 -1.588006e-02 -1.722999e-02 -1.837819e-02 -1.932574e-02 -2.008359e-02 -2.067003e-02 -2.110803e-02 -2.142279e-02 -2.163945e-02 -2.178111e-02 -2.186735e-02 -2.191296e-02 -2.192712e-02 -2.191296e-02 -2.186735e-02 -2.178111e-02 -2.163945e-02 -2.142279e-02 -2.110803e-02 -2.067003e-02 -2.008359e-02 -1.932574e-02 -1.837819e-02 -1.722999e-02 -1.588006e-02 -1.433939e-02 -1.263271e-02 -1.079943e-02 -8.893436e-03 -6.981832e-03 -5.142335e-03 -3.459488e-03 -7.793686e-04 -2.019751e-03 -2.630620e-04 -7.958858e-04 -8.351574e-04 -3.134336e-04 -2.150708e-03 -3.712316e-03 -5.543140e-03 -7.545181e-03 -9.621334e-03 -1.168141e-02 -1.364698e-02 -1.545479e-02 -1.705876e-02 -1.843041e-02 -1.955814e-02 -2.044538e-02 -2.110802e-02 -2.157144e-02 -2.186733e-02 -2.203064e-02 -2.209682e-02 -2.209941e-02 -2.206817e-02 -2.202757e-02 -2.199577e-02 -2.198392e-02 -2.199577e-02 -2.202757e-02 -2.206817e-02 -2.209941e-02 -2.209682e-02 -2.203064e-02 -2.186733e-02 -2.157144e-02 -2.110802e-02 -2.044538e-02 -1.955814e-02 -1.843041e-02 -1.705876e-02 -1.545479e-02 -1.364698e-02 -1.168141e-02 -9.621334e-03 -7.545181e-03 -5.543140e-03 -3.712316e-03 -2.150708e-03 -3.134336e-04 -8.351574e-04 -7.958858e-04 -3.134336e-04 -2.150708e-03 -3.798376e-03 -5.748109e-03 -7.890226e-03 -1.011407e-02 -1.231531e-02 -1.440204e-02 -1.629931e-02 -1.795199e-02 -1.932575e-02 -2.040662e-02 -2.119912e-02 -2.172331e-02 -2.201137e-02 -2.210378e-02 -2.204561e-02 -2.188315e-02 -2.166100e-02 -2.141978e-02 -2.119441e-02 -2.101293e-02 -2.089577e-02 -2.085534e-02 -2.089577e-02 -2.101293e-02 -2.119441e-02 -2.141978e-02 -2.166100e-02 -2.188315e-02 -2.204561e-02 -2.210378e-02 -2.201137e-02 -2.172331e-02 -2.119912e-02 -2.040662e-02 -1.932575e-02 -1.795199e-02 -1.629931e-02 -1.440204e-02 -1.231531e-02 -1.011407e-02 -7.890226e-03 -5.748109e-03 -3.798376e-03 -2.150708e-03 -3.134336e-04 -7.958858e-04 -7.793686e-04 -2.630620e-04 -2.019751e-03 -3.712316e-03 -5.748109e-03 -8.006348e-03 -1.036235e-02 -1.269623e-02 -1.490050e-02 -1.688594e-02 -1.858560e-02 -1.995669e-02 -2.098060e-02 -2.166110e-02 -2.202125e-02 -2.209934e-02 -2.194448e-02 -2.161202e-02 -2.115942e-02 -2.064267e-02 -2.011347e-02 -1.961725e-02 -1.919186e-02 -1.886691e-02 -1.866353e-02 -1.859434e-02 -1.866353e-02 -1.886691e-02 -1.919186e-02 -1.961725e-02 -2.011347e-02 -2.064267e-02 -2.115942e-02 -2.161202e-02 -2.194448e-02 -2.209934e-02 -2.202125e-02 -2.166110e-02 -2.098060e-02 -1.995669e-02 -1.858560e-02 -1.688594e-02 -1.490050e-02 -1.269623e-02 -1.036235e-02 -8.006348e-03 -5.748109e-03 -3.712316e-03 -2.019751e-03 -2.630620e-04 -7.793686e-04 -1.555300e-03 -3.459488e-03 -5.543140e-03 -7.890226e-03 -1.036235e-02 -1.282321e-02 -1.514781e-02 -1.723002e-02 -1.898804e-02 -2.036750e-02 -2.134223e-02 -2.191288e-02 -2.210374e-02 -2.195820e-02 -2.153359e-02 -2.089565e-02 -2.011340e-02 -1.925467e-02 -1.838247e-02 -1.755260e-02 -1.681211e-02 -1.619874e-02 -1.574102e-02 -1.545870e-02 -1.536333e-02 -1.545870e-02 -1.574102e-02 -1.619874e-02 -1.681211e-02 -1.755260e-02 -1.838247e-02 -1.925467e-02 -2.011340e-02 -2.089565e-02 -2.153359e-02 -2.195820e-02 -2.210374e-02 -2.191288e-02 -2.134223e-02 -2.036750e-02 -1.898804e-02 -1.723002e-02 -1.514781e-02 -1.282321e-02 -1.036235e-02 -7.890226e-03 -5.543140e-03 -3.459488e-03 -1.555300e-03 -1.251759e-03 -7.298115e-04 -3.056251e-03 -5.142335e-03 -7.545181e-03 -1.011407e-02 -1.269623e-02 -1.514781e-02 -1.734327e-02 -1.918274e-02 -2.059666e-02 -2.154780e-02 -2.203057e-02 -2.206805e-02 -2.170718e-02 -2.101277e-02 -2.006103e-02 -1.893316e-02 -1.770961e-02 -1.646548e-02 -1.526722e-02 -1.417068e-02 -1.322052e-02 -1.245062e-02 -1.188513e-02 -1.153993e-02 -1.142391e-02 -1.153993e-02 -1.188513e-02 -1.245062e-02 -1.322052e-02 -1.417068e-02 -1.526722e-02 -1.646548e-02 -1.770961e-02 -1.893316e-02 -2.006103e-02 -2.101277e-02 -2.170718e-02 -2.206805e-02 -2.203057e-02 -2.154780e-02 -2.059666e-02 -1.918274e-02 -1.734327e-02 -1.514781e-02 -1.269623e-02 -1.011407e-02 -7.545181e-03 -5.142335e-03 -3.056251e-03 -7.298115e-04 -1.251759e-03 -8.956759e-04 -4.940370e-04 -2.530782e-03 -4.564894e-03 -6.981832e-03 -9.621334e-03 -1.231531e-02 -1.490050e-02 -1.723002e-02 -1.918274e-02 -2.067002e-02 -2.163939e-02 -2.207508e-02 -2.199562e-02 -2.144912e-02 -2.050661e-02 -1.925456e-02 -1.778706e-02 -1.619858e-02 -1.457780e-02 -1.300312e-02 -1.153981e-02 -1.023896e-02 -9.138054e-03 -8.262650e-03 -7.628779e-03 -7.245540e-03 -7.117362e-03 -7.245540e-03 -7.628779e-03 -8.262650e-03 -9.138054e-03 -1.023896e-02 -1.153981e-02 -1.300312e-02 -1.457780e-02 -1.619858e-02 -1.778706e-02 -1.925456e-02 -2.050661e-02 -2.144912e-02 -2.199562e-02 -2.207508e-02 -2.163939e-02 -2.067002e-02 -1.918274e-02 -1.723002e-02 -1.490050e-02 -1.231531e-02 -9.621334e-03 -6.981832e-03 -4.564894e-03 -2.530782e-03 -4.940370e-04 -8.956759e-04 -6.242548e-04 -2.476470e-04 -1.924062e-03 -3.841698e-03 -6.219954e-03 -8.893436e-03 -1.168141e-02 -1.440204e-02 -1.688594e-02 -1.898804e-02 -2.059666e-02 -2.163939e-02 -2.208544e-02 -2.194441e-02 -2.126203e-02 -2.011330e-02 -1.859410e-02 -1.681191e-02 -1.487685e-02 -1.289359e-02 -1.095501e-02 -9.137945e-03 -7.501132e-03 -6.085400e-03 -4.915657e-03 -4.004215e-03 -3.354795e-03 -2.966546e-03 -2.837443e-03 -2.966546e-03 -3.354795e-03 -4.004215e-03 -4.915657e-03 -6.085400e-03 -7.501132e-03 -9.137945e-03 -1.095501e-02 -1.289359e-02 -1.487685e-02 -1.681191e-02 -1.859410e-02 -2.011330e-02 -2.126203e-02 -2.194441e-02 -2.208544e-02 -2.163939e-02 -2.059666e-02 -1.898804e-02 -1.688594e-02 -1.440204e-02 -1.168141e-02 -8.893436e-03 -6.219954e-03 -3.841698e-03 -1.924062e-03 -2.476470e-04 -6.242548e-04 -1.134466e-03 -3.017156e-03 -5.291149e-03 -7.948181e-03 -1.079943e-02 -1.364698e-02 -1.629931e-02 -1.858560e-02 -2.036750e-02 -2.154780e-02 -2.207508e-02 -2.194441e-02 -2.119422e-02 -1.989978e-02 -1.816426e-02 -1.610824e-02 -1.385889e-02 -1.153966e-02 -9.261643e-03 -7.117140e-03 -5.175935e-03 -3.484353e-03 -2.066931e-03 -9.302209e-04 -6.804419e-05 5.326101e-04 8.858872e-04 1.002352e-03 8.858872e-04 5.326101e-04 -6.804419e-05 -9.302209e-04 -2.066931e-03 -3.484353e-03 -5.175935e-03 -7.117140e-03 -9.261643e-03 -1.153966e-02 -1.385889e-02 -1.610824e-02 -1.816426e-02 -1.989978e-02 -2.119422e-02 -2.194441e-02 -2.207508e-02 -2.154780e-02 -2.036750e-02 -1.858560e-02 -1.629931e-02 -1.364698e-02 -1.079943e-02 -7.948181e-03 -5.291149e-03 -3.017156e-03 -1.134466e-03 -7.158603e-04 -3.588093e-04 -2.150637e-03 -4.241726e-03 -6.815813e-03 -9.682590e-03 -1.263271e-02 -1.545479e-02 -1.795199e-02 -1.995669e-02 -2.134223e-02 -2.203057e-02 -2.199562e-02 -2.126203e-02 -1.989978e-02 -1.801542e-02 -1.574075e-02 -1.322028e-02 -1.059873e-02 -8.009626e-03 -5.566084e-03 -3.354579e-03 -1.431981e-03 1.740129e-04 1.461386e-03 2.447884e-03 3.163522e-03 3.642519e-03 3.915689e-03 4.004234e-03 3.915689e-03 3.642519e-03 3.163522e-03 2.447884e-03 1.461386e-03 1.740129e-04 -1.431981e-03 -3.354579e-03 -5.566084e-03 -8.009626e-03 -1.059873e-02 -1.322028e-02 -1.574075e-02 -1.801542e-02 -1.989978e-02 -2.126203e-02 -2.199562e-02 -2.203057e-02 -2.134223e-02 -1.995669e-02 -1.795199e-02 -1.545479e-02 -1.263271e-02 -9.682590e-03 -6.815813e-03 -4.241726e-03 -2.150637e-03 -3.588093e-04 -7.158603e-04 -1.157461e-03 -3.134991e-03 -5.543066e-03 -8.357800e-03 -1.136543e-02 -1.433939e-02 -1.705876e-02 -1.932575e-02 -2.098060e-02 -2.191288e-02 -2.206805e-02 -2.144912e-02 -2.011330e-02 -1.816426e-02 -1.574075e-02 -1.300297e-02 -1.011792e-02 -7.245232e-03 -4.524698e-03 -2.066770e-03 5.339086e-05 1.797810e-03 3.163637e-03 4.177541e-03 4.887388e-03 5.352225e-03 5.631809e-03 5.776873e-03 5.821270e-03 5.776873e-03 5.631809e-03 5.352225e-03 4.887388e-03 4.177541e-03 3.163637e-03 1.797810e-03 5.339086e-05 -2.066770e-03 -4.524698e-03 -7.245232e-03 -1.011792e-02 -1.300297e-02 -1.574075e-02 -1.816426e-02 -2.011330e-02 -2.144912e-02 -2.206805e-02 -2.191288e-02 -2.098060e-02 -1.932575e-02 -1.705876e-02 -1.433939e-02 -1.136543e-02 -8.357800e-03 -5.543066e-03 -3.134991e-03 -1.157461e-03 -6.286730e-04 -3.413190e-04 -2.052025e-03 -4.196379e-03 -6.870948e-03 -9.866962e-03 -1.295009e-02 -1.588006e-02 -1.843041e-02 -2.040662e-02 -2.166110e-02 -2.210374e-02 -2.170718e-02 -2.050661e-02 -1.859410e-02 -1.610824e-02 -1.322028e-02 -1.011792e-02 -6.988658e-03 -4.003941e-03 -1.305862e-03 1.002625e-03 2.863080e-03 4.262212e-03 5.227932e-03 5.821388e-03 6.125973e-03 6.234566e-03 6.236425e-03 6.205172e-03 6.189143e-03 6.205172e-03 6.236425e-03 6.234566e-03 6.125973e-03 5.821388e-03 5.227932e-03 4.262212e-03 2.863080e-03 1.002625e-03 -1.305862e-03 -4.003941e-03 -6.988658e-03 -1.011792e-02 -1.322028e-02 -1.610824e-02 -1.859410e-02 -2.050661e-02 -2.170718e-02 -2.210374e-02 -2.166110e-02 -2.040662e-02 -1.843041e-02 -1.588006e-02 -1.295009e-02 -9.866962e-03 -6.870948e-03 -4.196379e-03 -2.052025e-03 -3.413190e-04 -6.286730e-04 -1.084734e-03 -2.863196e-03 -5.291085e-03 -8.181427e-03 -1.130232e-02 -1.440199e-02 -1.722999e-02 -1.955814e-02 -2.119912e-02 -2.202125e-02 -2.195820e-02 -2.101277e-02 -1.925456e-02 -1.681191e-02 -1.385889e-02 -1.059873e-02 -7.245232e-03 -4.003941e-03 -1.054897e-03 1.461559e-03 3.454594e-03 4.887538e-03 5.777061e-03 6.187129e-03 6.218472e-03 5.994723e-03 5.646724e-03 5.296637e-03 5.043494e-03 4.951675e-03 5.043494e-03 5.296637e-03 5.646724e-03 5.994723e-03 6.218472e-03 6.187129e-03 5.777061e-03 4.887538e-03 3.454594e-03 1.461559e-03 -1.054897e-03 -4.003941e-03 -7.245232e-03 -1.059873e-02 -1.385889e-02 -1.681191e-02 -1.925456e-02 -2.101277e-02 -2.195820e-02 -2.202125e-02 -2.119912e-02 -1.955814e-02 -1.722999e-02 -1.440199e-02 -1.130232e-02 -8.181427e-03 -5.291085e-03 -2.863196e-03 -1.084734e-03 -1.450570e-03 -3.712186e-03 -6.380343e-03 -9.437926e-03 -1.263266e-02 -1.569847e-02 -1.837819e-02 -2.044538e-02 -2.172331e-02 -2.209934e-02 -2.153359e-02 -2.006103e-02 -1.778706e-02 -1.487685e-02 -1.153966e-02 -8.009626e-03 -4.524698e-03 -1.305862e-03 1.461559e-03 3.642771e-03 5.163238e-03 6.012453e-03 6.241507e-03 5.954787e-03 5.296722e-03 4.434926e-03 3.541443e-03 2.773966e-03 2.258875e-03 2.077779e-03 2.258875e-03 2.773966e-03 3.541443e-03 4.434926e-03 5.296722e-03 5.954787e-03 6.241507e-03 6.012453e-03 5.163238e-03 3.642771e-03 1.461559e-03 -1.305862e-03 -4.524698e-03 -8.009626e-03 -1.153966e-02 -1.487685e-02 -1.778706e-02 -2.006103e-02 -2.153359e-02 -2.209934e-02 -2.172331e-02 -2.044538e-02 -1.837819e-02 -1.569847e-02 -1.263266e-02 -9.437926e-03 -6.380343e-03 -3.712186e-03 -1.450570e-03 -7.023024e-04 -4.747152e-04 -2.251329e-03 -4.564773e-03 -7.431187e-03 -1.061163e-02 -1.383632e-02 -1.682795e-02 -1.932574e-02 -2.110802e-02 -2.201137e-02 -2.194448e-02 -2.089565e-02 -1.893316e-02 -1.619858e-02 -1.289359e-02 -9.261643e-03 -5.566084e-03 -2.066770e-03 1.002625e-03 3.454594e-03 5.163238e-03 6.073783e-03 6.205361e-03 5.646841e-03 4.546195e-03 3.094429e-03 1.505664e-03 -4.729449e-06 -1.241842e-03 -2.050721e-03 -2.331789e-03 -2.050721e-03 -1.241842e-03 -4.729449e-06 1.505664e-03 3.094429e-03 4.546195e-03 5.646841e-03 6.205361e-03 6.073783e-03 5.163238e-03 3.454594e-03 1.002625e-03 -2.066770e-03 -5.566084e-03 -9.261643e-03 -1.289359e-02 -1.619858e-02 -1.893316e-02 -2.089565e-02 -2.194448e-02 -2.201137e-02 -2.110802e-02 -1.932574e-02 -1.682795e-02 -1.383632e-02 -1.061163e-02 -7.431187e-03 -4.564773e-03 -2.251329e-03 -4.747152e-04 -7.023024e-04 -1.044034e-03 -2.863152e-03 -5.391244e-03 -8.416757e-03 -1.168131e-02 -1.490043e-02 -1.778842e-02 -2.008359e-02 -2.157144e-02 -2.210378e-02 -2.161202e-02 -2.011340e-02 -1.770961e-02 -1.457780e-02 -1.095501e-02 -7.117140e-03 -3.354579e-03 5.339086e-05 2.863080e-03 4.887538e-03 6.012453e-03 6.205361e-03 5.517343e-03 4.077092e-03 2.077889e-03 -2.412623e-04 -2.618616e-03 -4.794627e-03 -6.536561e-03 -7.660493e-03 -8.048647e-03 -7.660493e-03 -6.536561e-03 -4.794627e-03 -2.618616e-03 -2.412623e-04 2.077889e-03 4.077092e-03 5.517343e-03 6.205361e-03 6.012453e-03 4.887538e-03 2.863080e-03 5.339086e-05 -3.354579e-03 -7.117140e-03 -1.095501e-02 -1.457780e-02 -1.770961e-02 -2.011340e-02 -2.161202e-02 -2.210378e-02 -2.157144e-02 -2.008359e-02 -1.778842e-02 -1.490043e-02 -1.168131e-02 -8.416757e-03 -5.391244e-03 -2.863152e-03 -1.044034e-03 -1.251641e-03 -3.459321e-03 -6.166673e-03 -9.316152e-03 -1.263263e-02 -1.581962e-02 -1.858557e-02 -2.067003e-02 -2.186733e-02 -2.204561e-02 -2.115942e-02 -1.925467e-02 -1.646548e-02 -1.300312e-02 -9.137945e-03 -5.175935e-03 -1.431981e-03 1.797810e-03 4.262212e-03 5.777061e-03 6.241507e-03 5.646841e-03 4.077092e-03 1.701312e-03 -1.241767e-03 -4.465337e-03 -7.660452e-03 -1.052394e-02 -1.278581e-02 -1.423365e-02 -1.473180e-02 -1.423365e-02 -1.278581e-02 -1.052394e-02 -7.660452e-03 -4.465337e-03 -1.241767e-03 1.701312e-03 4.077092e-03 5.646841e-03 6.241507e-03 5.777061e-03 4.262212e-03 1.797810e-03 -1.431981e-03 -5.175935e-03 -9.137945e-03 -1.300312e-02 -1.646548e-02 -1.925467e-02 -2.115942e-02 -2.204561e-02 -2.186733e-02 -2.067003e-02 -1.858557e-02 -1.581962e-02 -1.263263e-02 -9.316152e-03 -6.166673e-03 -3.459321e-03 -1.251641e-03 -4.375920e-04 -3.253694e-04 -1.799828e-03 -4.017185e-03 -6.870861e-03 -1.011392e-02 -1.345714e-02 -1.659450e-02 -1.923068e-02 -2.110803e-02 -2.203064e-02 -2.188315e-02 -2.064267e-02 -1.838247e-02 -1.526722e-02 -1.153981e-02 -7.501132e-03 -3.484353e-03 1.740129e-04 3.163637e-03 5.227932e-03 6.187129e-03 5.954787e-03 4.546195e-03 2.077889e-03 -1.241767e-03 -5.130134e-03 -9.254484e-03 -1.326070e-02 -1.680399e-02 -1.957890e-02 -2.134589e-02 -2.195236e-02 -2.134589e-02 -1.957890e-02 -1.680399e-02 -1.326070e-02 -9.254484e-03 -5.130134e-03 -1.241767e-03 2.077889e-03 4.546195e-03 5.954787e-03 6.187129e-03 5.227932e-03 3.163637e-03 1.740129e-04 -3.484353e-03 -7.501132e-03 -1.153981e-02 -1.526722e-02 -1.838247e-02 -2.064267e-02 -2.188315e-02 -2.203064e-02 -2.110803e-02 -1.923068e-02 -1.659450e-02 -1.345714e-02 -1.011392e-02 -6.870861e-03 -4.017185e-03 -1.799828e-03 -3.253694e-04 -4.375920e-04 -6.153161e-04 -2.150515e-03 -4.517933e-03 -7.487999e-03 -1.079930e-02 -1.415108e-02 -1.722996e-02 -1.973849e-02 -2.142279e-02 -2.209682e-02 -2.166100e-02 -2.011347e-02 -1.755260e-02 -1.417068e-02 -1.023896e-02 -6.085400e-03 -2.066931e-03 1.461386e-03 4.177541e-03 5.821388e-03 6.218472e-03 5.296722e-03 3.094429e-03 -2.412623e-04 -4.465337e-03 -9.254484e-03 -1.423362e-02 -1.900709e-02 -2.319194e-02 -2.645021e-02 -2.851759e-02 -2.922595e-02 -2.851759e-02 -2.645021e-02 -2.319194e-02 -1.900709e-02 -1.423362e-02 -9.254484e-03 -4.465337e-03 -2.412623e-04 3.094429e-03 5.296722e-03 6.218472e-03 5.821388e-03 4.177541e-03 1.461386e-03 -2.066931e-03 -6.085400e-03 -1.023896e-02 -1.417068e-02 -1.755260e-02 -2.011347e-02 -2.166100e-02 -2.209682e-02 -2.142279e-02 -1.973849e-02 -1.722996e-02 -1.415108e-02 -1.079930e-02 -7.487999e-03 -4.517933e-03 -2.150515e-03 -6.153161e-04 -7.797098e-04 -2.459334e-03 -4.946440e-03 -8.006160e-03 -1.136532e-02 -1.471403e-02 -1.773346e-02 -2.012521e-02 -2.163945e-02 -2.209941e-02 -2.141978e-02 -1.961725e-02 -1.681211e-02 -1.322052e-02 -9.138054e-03 -4.915657e-03 -9.302209e-04 2.447884e-03 4.887388e-03 6.125973e-03 5.994723e-03 4.434926e-03 1.505664e-03 -2.618616e-03 -7.660452e-03 -1.326070e-02 -1.900709e-02 -2.446762e-02 -2.922594e-02 -3.291571e-02 -3.525105e-02 -3.605026e-02 -3.525105e-02 -3.291571e-02 -2.922594e-02 -2.446762e-02 -1.900709e-02 -1.326070e-02 -7.660452e-03 -2.618616e-03 1.505664e-03 4.434926e-03 5.994723e-03 6.125973e-03 4.887388e-03 2.447884e-03 -9.302209e-04 -4.915657e-03 -9.138054e-03 -1.322052e-02 -1.681211e-02 -1.961725e-02 -2.141978e-02 -2.209941e-02 -2.163945e-02 -2.012521e-02 -1.773346e-02 -1.471403e-02 -1.136532e-02 -8.006160e-03 -4.946440e-03 -2.459334e-03 -7.797098e-04 -9.193844e-04 -2.712958e-03 -5.290988e-03 -8.416706e-03 -1.180787e-02 -1.514770e-02 -1.811349e-02 -2.040663e-02 -2.178111e-02 -2.206817e-02 -2.119441e-02 -1.919186e-02 -1.619874e-02 -1.245062e-02 -8.262650e-03 -4.004215e-03 -6.804419e-05 3.163522e-03 5.352225e-03 6.234566e-03 5.646724e-03 3.541443e-03 -4.729449e-06 -4.794627e-03 -1.052394e-02 -1.680399e-02 -2.319194e-02 -2.922594e-02 -3.446228e-02 -3.851141e-02 -4.106974e-02 -4.194454e-02 -4.106974e-02 -3.851141e-02 -3.446228e-02 -2.922594e-02 -2.319194e-02 -1.680399e-02 -1.052394e-02 -4.794627e-03 -4.729449e-06 3.541443e-03 5.646724e-03 6.234566e-03 5.352225e-03 3.163522e-03 -6.804419e-05 -4.004215e-03 -8.262650e-03 -1.245062e-02 -1.619874e-02 -1.919186e-02 -2.119441e-02 -2.206817e-02 -2.178111e-02 -2.040663e-02 -1.811349e-